<?xml version="1.0" ?>
<VTKFile type="UnstructuredGrid" version="0.1" byte_order="LittleEndian" compressor="vtkZLibDataCompressor">
    <UnstructuredGrid>
        <Piece NumberOfPoints="21868" NumberOfCells="5467">
            <Points>
                <DataArray type="Float64" Name="Array" NumberOfComponents="3" format="ascii" RangeMin="-5" RangeMax="5">2.67006 -0.181081 -0.172583 2.65337 -0.5 -0.224658 2.45975 -0.300769 -0.305963 2.43895 -0.257783 -0.0804567 0.20313 0.30062 0.00478777 0.368286 0.000670143 0.00826379 0.126874 0.0249416 0.0191019 0.251425 0.203958 0.206012 -0.938323 -0.045258 0.249302 -0.875982 -0.279514 0.272147 -0.706209 0.0372918 0.28922 -0.740519 -0.139836 0.127673 -0.361372 0.0547112 -0.5 -0.462677 -0.020818 -0.276437 -0.46435 -0.233587 -0.5 -0.552888 0.0235049 -0.5 1.29879 -0.150924 0.164081 1.68281 -0.150675 0.170435 1.46799 -0.231943 -0.0323426 1.48918 -0.271882 0.2698 -2.19421 -0.274361 -0.107292 -2.22732 -0.5 -0.244308 -2.32544 -0.5 -0.0165577 -2.07548 -0.5 -0.0651731 2.47155 0.296454 0.5 2.2874 0.5 0.363831 2.41164 0.335012 0.268243 2.52572 0.5 0.37575 4.69089 0.5 -0.184601 4.5329 0.5 0.157089 4.73875 0.5 0.122989 4.58222 0.299581 -0.00738959 4.08861 0.0631454 0.261371 3.96624 0.204371 0.5 4.13337 0.295782 0.284848 4.11932 0.194851 0.5 -3.16925 -0.17956 -0.180424 -3.0115 -0.302675 -0.293055 -3.16293 -0.5 -0.345901 -3.15849 -0.5 -0.166316 0.695644 0.313597 0.289784 0.588219 0.5 0.18289 0.634491 0.5 0.406877 0.457646 0.28433 0.293055 -4.76554 0.294594 -0.0157083 -4.51455 0.5 -0.0450172 -4.55065 0.301944 0.066922 -4.64253 0.5 0.168858 -1.82094 0.5 0.22015 -1.99033 0.306693 -0.00964723 -1.81217 0.326827 0.085833 -2.05169 0.5 -0.0210206 4.10331 0.5 -0.166094 4.07852 0.268855 0.022481 4.29446 0.206954 -0.174728 4.1899 0.32223 -0.315391 1.48918 -0.271882 0.2698 1.29879 -0.150924 0.164081 1.68281 -0.150675 0.170435 1.49095 0.0350391 0.244337 -4.0226 -0.317652 -0.0315382 -4.08492 -0.304231 -0.316394 -4.22218 -0.176774 -0.206717 -4.23427 -0.294397 -0.0367906 3.78464 -0.311236 -0.287964 3.83348 -0.299514 -0.0354722 3.64509 -0.171317 -0.192113 3.95388 -0.193493 -0.21225 0.688636 -0.5 0.0920092 0.585124 -0.186395 0.183186 0.5136 -0.5 0.0875531 0.57816 -0.318255 -0.050177 1.16655 -0.302322 0.0328077 1.37337 -0.332557 0.115447 1.24431 -0.5 -0.0790798 1.26941 -0.5 0.160978 -0.178854 -0.178174 0.190888 -0.105002 -0.0145136 0.5 0.0286 -0.0250054 0.307302 0.0360521 -0.163068 0.5 2.65613 0.374424 -0.5 2.46881 0.275378 -0.28757 2.7816 0.200817 -0.5 2.48037 0.167816 -0.5 -2.49491 0.290382 -0.309409 -2.68501 0.200225 -0.224239 -2.61689 0.311747 -0.5 -2.83089 0.31934 -0.310582 0.193223 -0.0785692 -0.5 -0.0147098 -0.0771352 -0.5 0.171474 -0.0464628 -0.286261 0.0845363 -0.245718 -0.5 0.763861 -0.10623 0.0894379 0.57816 -0.318255 -0.050177 0.701154 -0.130685 -0.126722 0.588276 -0.0230835 0.032041 3.82658 -0.000654595 0.320869 3.81875 -0.0269357 0.5 3.709 -0.173651 0.5 3.60323 -0.0550327 0.298862 1.12637 -0.313144 0.27022 1.16655 -0.302322 0.0328077 1.10007 -0.5 0.256448 1.26941 -0.5 0.160978 -1.14758 0.230443 0.22876 -1.243 0.5 0.28215 -1.17458 0.41473 0.5 -1.37271 0.306019 0.282916 -2.3762 0.323586 -0.5 -2.61689 0.311747 -0.5 -2.49491 0.290382 -0.309409 -2.47146 0.0793493 -0.5 -1.1246 -0.212917 0.241694 -1.18551 -0.252248 -0.0140109 -1.11157 -0.5 0.06179 -0.943142 -0.254317 0.0406566 -4.23735 -0.30584 0.5 -4.50718 -0.464885 0.5 -4.14829 -0.5 0.453635 -4.39961 -0.5 0.310583 3.28699 -0.281709 0.325613 3.11723 -0.5 0.09018 3.18709 -0.322816 -0.00978753 3.17439 -0.1835 0.153609 0.627894 -0.5 -0.193927 0.776195 -0.5 -0.0596185 0.688636 -0.5 0.0920092 0.57816 -0.318255 -0.050177 0.367978 0.042949 -0.262183 0.368286 0.000670143 0.00826379 0.486603 -0.0979606 -0.145818 0.271882 -0.216083 -0.194964 -0.759552 0.25304 -0.5 -0.927647 0.277407 -0.264567 -0.637832 0.084413 -0.319273 -0.899407 0.048585 -0.5 -2.92204 -0.264911 0.30409 -2.94121 -0.312625 -0.0114663 -2.96228 -0.5 0.220449 -2.81017 -0.5 0.0478308 4.77838 -0.0589151 0.0156396 4.80587 0.170795 -0.00531277 4.70255 0.197342 0.20104 4.55677 0.0402655 -0.0293456 -1.64032 -0.170421 -0.5 -1.52977 -0.418407 -0.5 -1.67041 -0.230732 -0.217682 -1.41159 -0.272967 -0.5 0.367978 0.042949 -0.262183 0.584618 0.186609 -0.176406 0.358736 0.276155 -0.160607 0.497442 0.321368 -0.310164 4.81414 -0.29069 0.0140587 5 -0.145108 -0.0509274 4.90677 -0.5 -0.135763 5 -0.405499 0.0993585 4.23113 -0.28602 0.307126 4.29261 0.0222651 0.301768 4.29012 -0.179375 0.5 4.12755 -0.151134 0.5 -4.09873 -0.5 0.240745 -3.88835 -0.22696 0.224362 -4.09456 -0.280513 0.317986 -4.0226 -0.317652 -0.0315382 0.0203416 -0.292065 -0.275544 -0.113573 -0.144852 -0.331427 -0.0144505 -0.123914 -0.110728 -0.186283 -0.267506 -0.0297261 1.68281 -0.150675 0.170435 1.87892 -0.102407 0.162473 1.85129 -0.257207 0.297493 1.71875 0.0124553 0.321056 3.21719 0.5 -0.0549518 2.92835 0.5 0.14331 3.09569 0.304503 0.00798849 2.92829 0.5 -0.193106 0.419669 0.5 0.385829 0.25996 0.5 0.306663 0.338927 0.202771 0.5 0.457646 0.28433 0.293055 -2.45008 -0.181467 0.191405 -2.61288 0.132505 0.274218 -2.71459 -0.0825424 0.279302 -2.64417 0.00311075 0.00510954 -2.86991 0.0349526 0.0138088 -2.68501 0.200225 -0.224239 -2.83086 0.316362 -0.103422 -2.97554 0.127149 -0.166158 -1.82094 0.5 0.22015 -1.95602 0.189105 0.177738 -1.81684 0.14204 0.326224 -1.81217 0.326827 0.085833 2.68894 0.160724 0.185793 2.6219 -0.0154533 0.302822 2.43958 -0.0261347 0.0383822 2.44281 0.109618 0.263886 -3.56401 0.299945 -0.0132552 -3.6555 0.5 -0.129516 -3.76126 0.271162 0.0154088 -3.64154 0.189039 -0.16241 -2.24386 -0.0507479 -0.5 -2.26115 -0.216045 -0.315631 -2.16829 -0.0375997 -0.23477 -2.03865 -0.0184398 -0.5 -0.00145226 0.5 -0.375164 -0.126166 0.363715 -0.5 -0.262464 0.5 -0.277214 -0.257421 0.296239 -0.344253 -2.14037 -0.0702164 0.5 -2.17916 0.0662475 0.268259 -2.32859 -0.0770714 0.5 -2.18094 -0.242499 0.243007 1.49143 0.0569608 -0.0418296 1.6075 0.0307893 -0.265097 1.71973 -0.0059337 -0.0152295 1.76173 0.197492 -0.184003 -3.88852 0.435269 -0.5 -3.64728 0.447611 -0.5 -3.7157 0.291701 -0.332285 -3.75268 0.5 -0.344136 -2.18094 -0.242499 0.243007 -2.26615 -0.269588 0.5 -2.10873 -0.5 0.463491 -2.36184 -0.328819 0.31843 -1.37271 0.306019 0.282916 -1.54863 0.27752 0.0171108 -1.4029 0.13422 0.12791 -1.32625 0.28149 -0.0505652 -0.627007 -0.18019 -0.188804 -0.819018 -0.0649649 -0.0691143 -0.624038 0.0354302 0.0376754 -0.539257 -0.149795 0.0414088 -2.71048 -0.5 0.294207 -2.92204 -0.264911 0.30409 -2.96228 -0.5 0.220449 -2.81017 -0.5 0.0478308 4.71247 0.207874 -0.21475 4.80587 0.170795 -0.00531277 4.77838 -0.0589151 0.0156396 4.55677 0.0402655 -0.0293456 -3.40668 0.46902 -0.5 -3.23816 0.5 -0.388029 -3.28573 0.5 -0.188947 -3.56943 0.5 -0.276576 -1.92154 -0.193775 0.176846 -1.96555 0.0171112 0.0156562 -2.18721 -0.0618652 0.0396095 -2.0675 -0.322738 0.0691594 -2.1896 0.28032 -0.276811 -2.19269 0.177904 -0.5 -2.04287 0.136849 -0.5 -1.98161 0.279607 -0.5 -0.77075 -0.3025 -0.313234 -0.863426 -0.5 -0.253996 -0.791641 -0.5 -0.0749613 -0.598848 -0.5 -0.0811002 0.729179 -0.299001 0.291538 0.585124 -0.186395 0.183186 0.750859 -0.0454753 0.282539 0.68295 -0.134737 0.5 -2.76259 -0.273502 0.5 -2.77915 -0.490046 0.5 -2.61406 -0.289228 0.316817 -2.71048 -0.5 0.294207 -3.05624 -0.178353 0.5 -3.24719 -0.229489 0.5 -3.11454 -0.337413 0.5 -3.11712 -0.320418 0.234363 -3.59743 0.015701 0.004246 -3.80343 0.0102542 -0.248267 -3.88182 0.00942032 -0.00449038 -3.60392 -0.148612 -0.188098 1.92453 -0.278168 0.0737138 2.0752 -0.5 0.183844 2.13699 -0.5 -0.0549518 1.8255 -0.5 0.108076 4.62577 0.136253 0.5 4.65316 0.31911 0.5 4.70255 0.197342 0.20104 4.82959 0.253214 0.5 -1.96076 -0.222891 0.5 -2.00539 -0.310906 0.321386 -1.92154 -0.193775 0.176846 -1.96498 -0.00496989 0.29592 -4.24905 -0.322405 -0.5 -4.08492 -0.304231 -0.316394 -4.11103 -0.5 -0.406429 -4.27464 -0.5 -0.254927 -4.7982 -0.273651 -0.0203413 -4.97611 -0.5 -0.167635 -5 -0.397009 0.0351711 -4.76936 -0.5 -0.0699376 -0.304963 0.342336 -0.138623 -0.288134 0.5 -0.0115873 -0.471316 0.325703 -0.0231702 -0.431399 0.5 -0.159485 1.71875 0.0124553 0.321056 1.63371 -0.268026 0.5 1.68281 -0.150675 0.170435 1.58497 -0.0776016 0.5 0.204139 0.234994 -0.5 0.367978 0.042949 -0.262183 0.38934 0.213506 -0.5 0.193223 -0.0785692 -0.5 2.84731 0.223749 0.5 2.93536 0.054025 0.256575 3.05489 -0.00573867 0.5 3.0071 0.308891 0.30772 5 -0.413446 0.331766 4.89255 -0.351975 0.5 4.742 -0.5 0.473972 4.81844 -0.5 0.275452 -4.80525 -0.0302538 0.278549 -5 0.158843 0.213306 -4.87737 0.169048 0.5 -5 0.0758458 0.383862 -0.538875 -0.0344438 0.205346 -0.542257 0.182367 0.5 -0.706209 0.0372918 0.28922 -0.551497 0.193033 0.186956 2.43958 -0.0261347 0.0383822 2.19867 0.167701 0.184452 2.44818 0.249485 0.00132407 2.44281 0.109618 0.263886 1.68281 -0.150675 0.170435 1.92453 -0.278168 0.0737138 1.85129 -0.257207 0.297493 1.87892 -0.102407 0.162473 4.31406 -0.303389 0.0406956 4.48249 -0.277843 0.289028 4.49951 -0.5 0.058422 4.29696 -0.5 0.122599 0.367978 0.042949 -0.262183 0.140698 0.168859 -0.176047 0.368286 0.000670143 0.00826379 0.126874 0.0249416 0.0191019 -3.6064 -0.5 0.299301 -3.7173 -0.460284 0.5 -3.54689 -0.301796 0.5 -3.46255 -0.5 0.463693 -0.389223 -0.43622 -0.5 -0.47421 -0.293385 -0.292206 -0.46435 -0.233587 -0.5 -0.293988 -0.192 -0.228232 -0.301161 -0.5 -0.187378 -0.483616 -0.5 -0.228385 -0.427409 -0.30482 -0.0290733 -0.598848 -0.5 -0.0811002 1.92453 -0.278168 0.0737138 1.8255 -0.5 0.108076 2.13699 -0.5 -0.0549518 1.81004 -0.5 -0.0736673 -3.21383 0.5 0.125498 -3.3869 0.286875 0.255601 -3.36529 0.292212 0.0185392 -3.4754 0.5 0.314251 -3.35322 0.018102 -0.00699372 -3.60392 -0.148612 -0.188098 -3.40542 -0.248738 -0.0299028 -3.38742 -0.020452 -0.264967 0.764682 0.370514 0.5 0.730506 0.192544 0.5 0.695644 0.313597 0.289784 0.570462 0.316098 0.5 3.45061 -0.252705 -0.0462378 3.56283 -0.5 -0.19048 3.45322 -0.275701 -0.28087 3.35854 -0.5 -0.161224 2.96921 -0.182152 0.277096 2.92528 -0.5 0.116204 3.08281 -0.5 0.295102 2.94404 -0.248249 0.048308 3.95388 -0.193493 -0.21225 3.76854 -0.114221 -0.
[...]
            <PointData>
                <DataArray Name="u0" type="Float64" format="ascii">0.477379 0.526269 0.576506 0.407349 0.233984 0.257074 0.238684 0.158016 0.172928 0.177514 0.160153 0.187816 0.332843 0.267714 0.320388 0.298409 0.195518 0.198264 0.339176 0.128655 0.0922398 0.0550265 0.110876 0.11213 -0.0414189 0.044791 0.128366 0.0477449 0.457526 0.319383 0.335556 0.387815 0.283203 0.18332 0.269246 0.234576 0.00229256 -0.0323988 -0.0606808 0.00815519 0.101692 0.15145 0.0297149 0.109161 0.00765813 0.0140221 0.028315 0.0441782 0.168965 0.121469 0.145625 0.112132 0.458089 0.373718 0.461908 0.526642 0.128655 0.195518 0.198264 0.13459 0.0209038 -0.0607624 -0.0277683 0.0130412 0.542925 0.40384 0.491887 0.496235 0.244295 0.181637 0.240642 0.30705 0.286155 0.237825 0.371903 0.212402 0.180739 0.079169 0.13282 0.071029 0.701053 0.542691 0.709038 0.705183 -0.000164951 0.0127683 -0.0801759 -0.0303082 0.45466 0.411928 0.36166 0.438328 0.230729 0.30705 0.349309 0.253788 0.217421 0.113519 0.0960629 0.201068 0.130689 0.286155 0.148226 0.212402 0.169372 0.164186 0.1666 0.17279 -0.0515571 -0.0801759 -0.000164951 -0.0648303 0.181922 0.180506 0.193758 0.193318 0.145403 0.099324 0.143686 0.0761817 0.153728 0.308892 0.374364 0.261654 0.392601 0.332754 0.244295 0.30705 0.372622 0.257074 0.336885 0.343916 0.245953 0.197806 0.249546 0.219527 0.193335 0.0771466 0.16105 0.105463 0.390222 0.394078 0.311359 0.399113 0.0771644 0.106287 0.118271 0.123387 0.372622 0.351173 0.317734 0.402724 0.388864 0.417589 0.446707 0.354887 0.270667 0.272421 0.230411 0.196196 0.0857983 0.105195 0.113962 0.0209038 0.344774 0.337729 0.278739 0.245796 0.198264 0.206908 0.112681 0.0824626 0.388683 0.238844 0.345197 0.476062 0.054551 0.10116 0.0247339 0.109161 0.16486 0.185367 0.187662 0.096068 0.08759 0.0127683 0.0452458 0.0166565 0.168965 0.165532 0.194202 0.145625 0.20704 0.12317 0.311949 0.141115 0.0470043 0.00554623 0.0486358 -0.00718751 -0.0280559 0.0256823 0.055218 0.00286609 0.348094 0.368133 0.277479 0.304318 0.254776 0.188752 0.261824 0.185038 0.334286 0.500981 0.326886 0.44205 -0.1189 -0.127933 -0.0658888 -0.0681067 0.185038 0.263276 0.251392 0.209323 0.17279 0.147967 0.166518 0.153 0.238887 0.20182 0.196263 0.207944 0.19703 0.193335 0.16105 0.105463 0.474926 0.394078 0.390222 0.399113 -0.128932 -0.0818359 -0.00588535 -0.0449147 0.17137 0.129918 0.126494 0.143934 0.0389992 -0.0219125 0.00182079 0.00904144 0.240259 0.228727 0.218194 0.235505 0.124865 0.181637 0.117851 0.00800832 0.274181 0.274841 0.206243 0.19703 0.26683 0.258238 0.264919 0.158713 0.0509295 -0.0401972 0.0360046 -0.0161619 0.279769 0.211578 0.389827 0.261534 0.193506 0.193506 0.311359 0.193506 0.245603 0.206809 0.17137 0.194464 -0.102932 -0.0607624 -0.0885361 -0.0423323 0.0019014 -0.000539383 0 -0.00257965 0.24366 0.208244 0.208914 0.229005 0.0824626 -0.04001 0.198264 -0.0474617 0.44217 0.372622 0.480373 0.45466 -0.0194793 0.170346 0.00285029 0.131058 0.265826 0.208235 0.214937 0.280936 0.0222848 0 0.0484699 0 0.171435 0.117393 0.160153 0.169675 0.311949 0.189242 0.329965 0.141115 0.198264 0.279769 0.112681 0.206908 0.376374 0.280536 0.364843 0.334915 0.372622 0.3056 0.257074 0.238684 0.151948 0.215795 0.235265 0.225716 0.347585 0.280415 0.320388 0.286476 0.288575 0.27592 0.23471 0.235505 0.279769 0.261534 0.389827 0.394227 0.112536 0.152232 0.0665477 0.170921 0.0578659 -0.0161619 0.0470197 -0.0382095 -0.0296118 -0.0158408 0.101692 -0.00846173 0.404649 0.498836 0.555537 0.482423 0.163265 0.285644 0.166401 0.327201 0.496235 0.576437 0.643071 0.533951 0.409685 0.334286 0.28116 0.484097 0.501687 0.524651 0.44968 0.463114 0.0019014 0 0.00878838 -0.00257965 0.238844 0.186008 0.361484 0.314863 -0.130076 -0.128186 -0.0538186 -0.131659 0.104284 0.105195 0.134253 0.141866 -0.0288902 0.128974 0.211578 0.119924 0.212652 0.0960629 0.120473 0.0874426 0.181922 0.178948 0.172928 0.15795 0.270667 0.315947 0.376374 0.280536 0.245953 0.197806 0.23176 0.249546 0.253788 0.299053 0.349309 0.230729 0.103863 0.0915026 0.13966 0.0660439 0.236272 0.201734 0.248905 0.22557 0.151948 0.141866 0.156717 0.235265 0.187816 0.20182 0.215453 0.207944 0.603837 0.555537 0.586206 0.712901 0.250899 0.260191 0.248905 0.182197 0.130594 0.185762 0.181637 0.0220962 0.208709 0.339227 0.389827 0.373715 0.0360046 0.0774893 0.113946 0.0098671 -0.0557656 -0.0752176 0.00945855 0.0547873 0.17471 0.16328 0.169372 0.180128 0.137762 0.121689 0.117393 0.123209 0.24497 0.288575 0.245796 0.23471 0.120681 0.106339 0.173956 0.129881 0.150271 0.236193 0.158586 0.293607 0.118225 0.0740804 0.0804219 0.0359931 0.250619 0.218066 0.218435 0.301902 0.286476 0.280415 0.320388 0.267714 0.141866 0.216657 0.225279 0.160769 0.234576 0.234576 0.234576 0.272421 0.583709 0.483334 0.482423 0.374364 0.196052 0.16577 0.169675 0.208914 0.110453 0.0486358 0.113767 0.169053 -0.0194793 -0.0285253 0.12317 0.20704 0.476062 0.696654 0.703544 0.641142 0.130874 0.0811437 0.145661 0.130043 0.153352 0.141749 0.147967 0.134934 -0.127933 -0.052492 -0.130076 -0.0658888 0.167554 0.179579 0.169372 0.154846 -0.0171008 0.0358098 0.0374318 0.0279292 0.503551 0.540308 0.460626 0.38689 -0.122119 0.00633645 -0.0443746 -0.0382095 0.0509295 0.104284 0.0578659 0.0470197 0.203415 0.128366 0.237981 0.0477449 0.345308 0.477178 0.374349 0.572815 0.08759 0.0452458 0.0853681 0.0166565 0.121689 0.137762 0.136467 0.16577 0.474926 0.441118 0.501895 0.458699 -0.0280559 -0.00299887 -0.033664 0.0256823 0.399113 0.387815 0.311359 0.282637 -0.119881 -0.127282 -0.126512 -0.0284574 0.17425 0.28116 0.276125 0.409685 0.18286 0.159927 0.166462 0.188625 0.282072 0.21655 0.319383 0.267912 0.42471 0.454738 0.48037 0.376374 0.123689 0.157521 0.239659 0.20433 -0.0115162 -0.0579892 -0.0748015 -0.0726572 -0.0953438 -0.0382728 -0.0367899 -0.0354252 0.239659 0.20433 0.253697 0.283765 0.185038 0.138454 0.209323 0.18506 0.500108 0.368363 0.591099 0.564627 -0.0168768 0.0166565 0.00633645 0.0740804 0.317615 0.465816 0.560566 0.445539 -0.0401972 -0.127282 -0.0525861 -0.0284574 -0.0950276 -0.0748015 -0.0354252 -0.0953438 0.118271 0.152649 0.118354 0.123387 0.169053 0.172218 0.238033 0.21664 0.096068 0.0185148 0.0642946 0.00945855 0.63083 0.542691 0.64176 0.697082 0.237981 0.333142 0.329965 0.460286 0.215759 0.232606 0.185334 0.216435 0.130689 0.286155 0.258244 0.148226 0.27592 0.294977 0.240259 0.235505 0.521873 0.409685 0.637193 0.61602 0.177787 0.184506 0.215759 0.185334 0.603837 0.712901 0.586206 0.722095 -0.0126816 -0.0240264 -0.00286052 0.00316235 0.339176 0.325379 0.371903 0.237825 0.583484 0.474926 0.475228 0.542081 0.0636064 0.104284 0.0107608 0.0470197 0.538118 0.460286 0.63083 0.542691 0.237981 0.368946 0.314863 0.203415 0.44217 0.428379 0.368133 0.328671 0.148992 0.167692 0.174612 0.177514 0.238844 0.203415 0.186008 0.314863 0.566235 0.526269 0.654031 0.576506 0.174612 0.177514 0.169153 0.148992 0.376374 0.39061 0.452807 0.364843 0.152229 0.143377 0.168346 0.152649 0.00229256 -0.0606808 -0.0432089 0.00815519 0.0662192 0.0169673 0.10098 0.0389992 0.351173 0.257074 0.253788 0.336885 0.517372 0.698744 0.554677 0.685457 0.00800832 0.117851 -0.0186939 -0.0164584 0.147867 -0.0578161 0.068297 0.0436386 0.217644 0.286476 0.238887 0.23471 -0.0365595 -0.0748015 -0.0115162 -0.0367899 0.270667 0.230411 0.280536 0.268785 0.129881 0.106339 0.160795 0.104619 0.240274 0.270667 0.209067 0.165846 0.205207 0.173956 0.203025 0.167174 0.589482 0.474926 0.475228 0.583484 0.0358098 0.0774893 0.0374318 0.0279292 -0.106391 -0.125328 -0.0323988 -0.0730244 0.317734 0.257074 0.3056 0.233984 0.517372 0.554677 0.445539 0.500981 0.521873 0.484097 0.384774 0.563634 0.249546 0.197806 0.207377 0.228412 0.477178 0.345308 0.522672 0.472775 0.395388 0.299638 0.301773 0.373718 0.185367 0.205372 0.26285 0.269312 0.259363 0.18615 0.255679 0.251856 0.354887 0.289096 0.265826 0.268413 -0.0148586 0.00765813 0 -0.0144841 0.0486358 -0.00718751 -0.0327653 0.0360046 0.384774 0.273244 0.409685 0.411463 0.0807397 0.136467 0.0714426 0.13712 0.16486 0.096068 0.187662 0.117498 0.153352 0.164186 0.17279 0.173 0.294959 0.270667 0.315947 0.376374 0.0660439 0.145403 0.113962 0.0649561 0.432143 0.299053 0.432326 0.368363 0.0540416 0.113946 0.105195 0.113962 0.103863 0.0450981 0.0915026 0.0514415 0.472775 0.339227 0.578844 0.424977 -0.0818359 -0.0538285 -0.0365529 0.0252257 -0.0126816 -0.00286052 -0.0205164 0.0019014 -0.0525861 -0.0284574 -0.0607624 -0.0277683 0.586206 0.583709 0.374364 0.441927 -0.0277683 0.0098671 0.0155697 0.0279292 0.572815 0.698744 0.702014 0.692943 0.3056 0.333011 0.328671 0.270998 -0.0171008 -0.0525861 -0.0277683 0.0098671 0.217421 0.18332 0.283203 0.166313 0.216435 0.194202 0.232606 0.185334 0.0342889 0.0574409 0.028315 0.0140221 0.0435622 0.0508581 0.0855231 0.0742282 0.10775 0.0642946 0.00945855 0.096068 -0.000663582 0.121709 0.163265 -0.0131994 0.173041 0.211839 0.195515 0.216435 0.376293 0.473613 0.345197 0.451127 0.203415 0.112514 0.128366 0.0477449 0.348836 0.230729 0.299053 0.277729 -0.0126816 -0.020548 -0.0240264 -0.0382728 0.458089 0.373718 0.526642 0.499489 -0.0454728 -0.0606808 -0.0432089 0.00229256 -0.0277683 0.0098671 0.0279292 -0.0354252 -0.0331069 0.0185148 0.0359931 0.08759 0.0920557 0.0845877 0.16914 0.117074 0.554677 0.44205 0.326886 0.500981 0.701053 0.539956 0.709038 0.4665 0.217644 0.23471 0.173956 0.180739 0.408602 0.343228 0.417589 0.390222 0.0171941 0.163265 0.00285029 -0.000663582 0.0983943 0.0886722 0.0512105 -0.061984 0.0642946 0.10775 0.105915 0.16486 0.00878838 0.0174988 0.0452892 0.0547054 0.657557 0.520946 0.658278 0.672307 0.270998 0.196052 0.217644 0.247711 0.620367 0.526642 0.533699 0.599127 0.0957739 0.0922398 0.143934 0.11213 0.0471266 0.0700022 0.0975126 0.0971336 0.0607489 0.109537 0.13966 0.103863 -0.111952 -0.0443746 -0.109993 -0.122119 0.533951 0.496235 0.516936 0.643071 0.0130412 0.0098671 -0.0277683 0.0209038 0.695025 0.542925 0.622191 0.555537 0.0827109 0.0313912 0.0975126 0.0471266 0.054551 0.109161 0.15145 0.178872 0.343916 0.36166 0.258765 0.278739 0.276521 0.308892 0.356278 0.153728 0.121709 0.285644 0.163265 0.327201 0.209804 0.17973 0.212652 0.0874426 0.112681 -0.04001 0.0824626 -0.0474959 0.311359 0.335164 0.305763 0.193506 0.416411 0.492783 0.277729 0.432143 0.183178 0.188423 0.19375 0.181922 0 0 0.0222848 0 0.457526 0.387815 0.404221 0.474926 0.315947 0.376374 0.395929 0.399897 0.261654 0.364277 0.170346 0.163265 0.277729 0.416411 0.217546 0.327877 -0.100392 -0.0482987 -0.0295207 -0.0501823 -0.122095 -0.0538285 -0.0365529 -0.0818359 0.0107608 0.104284 -0.0161619 0.0470197 0.17137 0.126494 0.185038 0.143934 0.457526 0.474926 0.441118 0.501895 0.185762 0.130684 0.136757 0.0220962 0.48037 0.376374 0.452807 0.364843 -0.0481754 -0.0565269 -0.0568878 0.13459 -0.0525861 -0.0284574 -0.119881 -0.0607624 0.0665477 0.110453 0.0470043 0.152232 0.343916 0.258765 0.24453 0.260874 0.139827 0.0975126 0.126155 0.130874 0.15297 0.267072 0.269356 0.187251 0.0560741 0.0220962 0.130594 0.0250515 0.576437 0.666629 0.533951 0.553382 0.129141 0.14902 0.147113 0.250628 0.472775 0.424977 0.578844 0.710123 0.0470197 0.127111 0.140684 0.057422 0.106287 0.140542 0.143848 0.152649 0.188761 0.209323 0.261416 0.206243 -0.0401972 -0.128186 -0.0161619 -0.0538186 -0.0186939 -0.0164584 0.117851 0.108892 0.193506 0.267912 0.222369 0.21655 0.172928 0.175656 0.181922 0.180128 0.0898911 0.141866 0.0636064 0.156717 0.099324 0.0915026 0.0547054 0.0452892 0.307201 0.28116 0.177901 0.334286 0.505653 0.422856 0.285644 0.420039 0.709038 0.4665 0.578245 0.705183 0.0171941 0.153728 0.163265 0.166401 0.0771644 0.0346219 0.0855231 0.0435622 0.432143 0.46044 0.349309 0.348836 0.0250515 0.0566149 0.130594 0.0560741 0.307201 0.177901 0.269518 0.257122 0.170804 0.196263 0.169675 0.186348 0.491887 0.498836 0.404649 0.349891 0.339176 0.371903 0.520384 0.416411 0.111257 0.0644315 0.0802511 0.109537 0.491 0.581837 0.552352 0.465399 0.509965 0.508874 0.461807 0.59459 0.169053 0.212099 0.230366 0.134253 0.344774 0.337729 0.286476 0.341916 0.508874 0.461908 0.395929 0.523184 -0.127933 -0.128932 -0.052492 -0.0449147 -0.0327653 -0.0501823 0.0390515 0.0374318 0.173193 0.0991233 0.125349 0.153858 0.253788 0.136757 0.257074 0.225286 0.0774893 0.12311 0.188511 0.166261 0.167692 0.181922 0.177514 0.172928 0.553382 0.491887 0.576437 0.690279 0.351173 0.257074 0.336885 0.372622 -0.0818359 0.0252257 -0.0365529 -0.00588535 0.188423 0.171138 0.191011 0.180506 -0.0449147 -0.052492 0.0470043 0.0536057 0.123339 0.0857983 0.105195 0.113962 0.475228 0.383928 0.451908 0.474586 0.110453 0.116656 0.134253 0.0360046 0.0477449 0.0845378 0.203415 0.112514 0.209562 0.260874 0.156925 0.183089 0.181922 0.19375 0.18229 0.191011 0.560566 0.465816 0.684195 0.527923 0.480039 0.458699 0.584148 0.55343 0.538118 0.692943 0.516531 0.572815 0.23471 0.288575 0.235505 0.203025 0.244901 0.152232 0.238033 0.169053 0.0807397 0.0714426 0.0758894 0.13712 0.15297 0.267072 0.269312 0.269356 0.451127 0.553202 0.564165 0.551693 0 0 0 0.0222848 0.589482 0.533699 0.565696 0.475228 0.48037 0.39061 0.452807 0.376374 -0.126512 -0.132434 -0.088756 -0.0513797 0.00613925 0.0100932 0.0244272 0.0277173 0.153 0.139827 0.134934 0.130874 0.496235 0.542925 0.576437 0.491887 0.110453 0.0486358 0.169053 0.116656 0.528544 0.610188 0.48037 0.522544 0.136467 0.117393 0.169675 0.154597 -0.0367899 -0.0126816 -0.0148586 -0.0115162 0.551693 0.509302 0.376293 0.483334 0.477178 0.460286 0.538118 0.542691 0.477178 0.702014 0.538118 0.572815 0.17425 0.276125 0.147113 0.277729 0.238844 0.361484 0.254887 0.345197 0.477379 0.349722 0.422856 0.346798 0.244901 0.170921 0.238033 0.152232 0.28116 0.384774 0.273244 0.409685 0.279769 0.325688 0.195943 0.206908 0.0484699 0.0802511 0.0816611 0.0356243 0.0827109 0.139827 0.130043 0.0975126 -0.0525861 -0.0401972 -0.0284574 0.0360046 0.315947 0.399113 0.39061 0.317265 0.44968 0.463114 0.446707 0.388864 0.17425 0.409685 0.276125 0.327877 0.0289583 0.0252257 -0.0303082 -0.0538285 0.477178 0.702014 0.522672 0.705183 0.0155697 0.0130412 -0.0277683 0.00316235 0.476062 0.361484 0.553202 0.539956 0.134934 0.118174 0.147967 0.0975126 -0.102932 -0.0885361 -0.0785707 -0.0423323 0.26683 0.158713 0.193335 0.183164 0.153728 0.261654 0.245913 0.202133 -0.0186939 -0.0327675 0.108892 -0.0453011 0.257122 0.0887269 0.189242 0.113661 0.153 0.147967 0.130874 0.134934 0.349309 0.421332 0.46044 0.432326 0.0740804 0.187113 0.118225 0.183164 0.118271 0.143848 0.152649 0.106287 0.209804 0.212652 0.120473 0.0874426 0.348836 0.217546 0.230729 0.277729 0.232606 0.245603 0.223532 0.19541 0.128655 0.198264 0.195909 0.112681 0.583484 0.501895 0.474926 0.542081 0.151547 0.185334 0.177787 0.19541 0.121709 0.163265 0.166401 -0.000663582 0.16328 0.145661 0.173365 0.166462 -0.0648303 0.00945855 -0.0840805 0.0127683 0.16486 0.10775 0.203472 0.096068 0.10116 0.126057 0.158016 0.178872 -0.12951 -0.12508 -0.122119 -0.0168768 -0.0148586 -0.0367899 -0.0485207 -0.020548 0.0166565 -0.0303082 -0.0331069 0.0127683 0.328671 0.239659 0.253697 0.283765 0.139017 0.130594 0.207633 0.167424 0.128655 -0.0481754 0.13459 -0.0474617 0.373718 0.283203 0.387594 0.299638 0.328671 0.304318 0.277479 0.253697 0.564627 0.368363 0.591099 0.471473 0.181922 0.191011 0.18229 0.193758 0.245603 0.206809 0.251392 0.224739 0.225286 0.317734 0.268148 0.233984 0.0740804 -0.0168768 0.0578659 0.00633645 0.0771466 0.118225 0.0359931 0.0185148 0.0555938 0.10091 0.0708915 -0.000164951 0.188752 0.123149 0.165532 0.182197 0.117877 0.0452458 0.0853681 0.08759 0.364843 0.373512 0.39061 0.452807 0.675159 0.465399 0.551926 0.540308 -0.000164951 -0.0840805 0.0127683 -0.0648303 0.106339 0.173956 0.157308 0.120681 0.118271 0.151547 0.143377 0.120011 -0.0538186 -0.0161619 0.0509295 -0.0382095 0.277729 0.108892 0.327877 0.217546 0.217421 0.18332 0.166313 0.113519 0.296311 0.229005 0.247711 0.235742 0.0662192 -0.0120033 0.0389992 0.0577682 -0.0115162 0.00613925 0.0100932 -0.0148586 -0.033115 0.0844691 -0.0321081 -0.0208577 0.187816 0.215453 0.205207 0.207944 0.187662 0.08759 0.118225 0.117498 0.695025 0.712901 0.603837 0.722095 0.0102294 -0.0557656 0.00945855 0.0547873 0.147867 0.257122 0.16556 0.330553 0.0714426 0.123689 0.13712 0.133288 0.657557 0.673207 0.637193 0.502812 0.484097 0.657557 0.637193 0.502812 0.0289583 -0.0538285 -0.0303082 -0.0460202 0.124865 0.230729 0.181637 0.272319 0.388683 0.345197 0.506516 0.476062 0.16914 0.233867 0.221732 0.205372 0.139282 0.187113 0.0740804 0.183164 -0.0117854 0.00765813 -0.0115162 -0.0144841 0.166462 0.16328 0.17471 0.180128 0.209269 0.155598 0.163942 0.269246 0.376632 0.250628 0.411463 0.368363 0.392657 0.335694 0.286476 0.341916 0.096068 0.15297 0.185367 0.187662 0.516255 0.432167 0.564627 0.540798 -0.0538186 -0.0401972 0.0509295 -0.0161619 0.184506 0.216435 0.194202 0.173041 -0.0229897 -0.0284562 0.141115 -0.0397156 0.399897 0.42471 0.495762 0.389267 0.482423 0.374364 0.356278 0.441927 0.474926 0.394078 0.404221 0.441118 0.0376237 0.0660439 0.00316235 0.0649561 0.203472 0.188752 0.16486 0.185038 0.0471266 0.0348273 0.0971336 0.0811437 0.317615 0.560566 0.394227 0.445539 0.148011 0.221732 0.182197 0.16914 0.153352 0.147967 0.141749 0.173 0.0389992 -0.0515571 -0.0219125 -0.0120033 0.00316235 -0.0240264 -0.00286052 -0.00690965 0.0389992 0.0169673 0.10091 0.0555938 0.387815 0.335164 0.394078 0.311359 0.148028 0.148992 0.169153 0.129881 0.130874 0.118354 0.158522 0.152229 0.286155 0.371903 0.258244 0.212402 0.269312 0.203472 0.268345 0.260191 -0.0168768 -0.0365529 -0.122119 -0.0443746 0.327877 0.28116 0.17425 0.409685 0.0209038 -0.0607624 0.0130412 -0.0185362 -0.119881 -0.126512 -0.0607624 -0.0284574 0.39061 0.390222 0.388864 0.317265 0.343916 0.477897 0.421332 0.492079 0.253552 0.152232 0.259363 0.244901 0.0829014 0.0758476 0.0356243 0.0644315 0.260874 0.207633 0.24453 0.29765 0.539956 0.578245 0.4665 0.564165 -0.0185965 -0.0284562 0.171797 -0.0229897 0.225286 0.158016 0.233984 0.178872 0.104284 0.141866 0.160769 0.156717 0.169372 0.166518 0.176707 0.175656 -0.12508 -0.103051 -0.111952 -0.0365529 0.198031 0.18739 0.205207 0.218194 0.203198 0.188423 0.201398 0.223532 0.207633 0.226725 0.29765 0.260874 0.257413 0.240259 0.206879 0.228412 0.0547873 -0.0584268 -0.0752176 0.00753187 -0.0148586 -0.0367899 -0.0748015 -0.065013 0.130689 -0.00969368 0.173799 -0.0186939 0.261654 0.308892 0.374364 0.327201 0.40147 0.498836 0.349891 0.382239 -0.0326251 0.0845378 0.186008 -0.0194793 0 0 0 0.00613925 0.315947 0.280536 0.270667 0.230411 0.477379 0.422856 0.566235 0.526269 0.404221 0.338076 0.432863 0.38125 0.402724 0.351173 0.510427 0.372622 0.615925 0.530358 0.634897 0.710123 0.238887 0.207944 0.217644 0.23471 0.329965 0.189242 0.311949 0.345308 0.172972 0.17137 0.190034 0.143934 -0.0658888 -0.052492 -0.130076 -0.0538186 0.188761 0.206243 0.261416 0.19703 0.0555938 0.055218 0.0919467 0.0389992 0.347512 0.503551 0.491 0.552352 -0.0321081 -0.0208577 0.130689 0.0377004 0.110453 0.134253 0.0509295 0.0360046 0.539956 0.451127 0.4665 0.361484 0.348094 0.368133 0.304318 0.328671 0.15145 0.27013 0.268257 0.225286 0.0660439 0.145403 0.0649561 0.0761817 0.15795 0.160153 0.172928 0.138486 0.314863 0.329965 0.237981 0.128366 0.0649561 0.145403 0.143686 0.0761817 0.245796 0.230153 0.278739 0.209562 0.0954567 0.133288 0.13712 0.136467 0.345197 0.347512 0.388683 0.473613 -0.000164951 -0.0801759 0.0127683 -0.0840805 -0.0648303 0.00945855 -0.0897965 -0.0840805 0.0886722 -0.0517243 -0.0327675 -0.0370501 0.00753187 0.0185148 0.0418954 -0.0182043 0.113962 0.0934466 0.0649561 0.0540416 -0.0284562 -0.0340695 -0.0254253 0.121136 0.301902 0.343228 0.390222 0.289096 0.527923 0.646271 0.666764 0.673207 0.348094 0.328671 0.277479 0.253697 -0.0354252 -0.0367899 0.0100932 0.0155697 0.0108447 0.0388059 0.00316235 0.0130412 0.188444 0.145625 0.165532 0.168965 -0.0367899 -0.0148586 -0.0748015 -0.0115162 0.476062 0.696654 0.539956 0.703544 0.701053 0.539956 0.696654 0.709038 0.269312 0.185367 0.268345 0.203472 0.105429 0.194208 0.116656 0.12311 0.48037 0.501687 0.548184 0.452807 0.117851 0.136757 0.0878293 0.00251873 -0.11324 -0.122225 -0.0327653 -0.1189 0.0247339 0.05