<?xml version="1.0"?>
<VTKFile type="UnstructuredGrid" version="0.1" byte_order="LittleEndian" compressor="vtkZLibDataCompressor">
  <UnstructuredGrid>
    <Piece NumberOfPoints="21868" NumberOfCells="5467">
      <PointData Scalars="u2" Vectors="DisplacementSolutionVector">
        <DataArray type="Float64" Name="u2" format="ascii" RangeMin="-1.1506" RangeMax="2.13995">
          0.833553 0.807915 0.668802 0.652838 -0.869098 -0.796305
          -0.90005 -0.849714 -1.13082 -1.13173 -1.10792 -1.11521
          -1.02195 -1.05959 -1.04914 -1.05963 -0.222251 0.070095
          -0.0956363 -0.0840872 -0.958975 -0.947155 -0.920145 -1.0007
          0.693819 0.562318 0.653264 0.746838 2.03787 1.9882
          2.04656 1.98846 1.84313 1.79197 1.88195 1.9288
          -0.563079 -0.630091 -0.560799 -0.565742 -0.621601 -0.685354
          -0.656534 -0.752531 -0.0270135 -0.0704409 -0.0665337 -0.0490048
          -1.0663 -1.02135 -1.06445 -1.01051 1.84714 1.83094
          1.89904 1.86394 -0.0840872 -0.222251 0.070095 -0.0718907
          -0.210131 -0.188494 -0.149544 -0.143159 1.63277 1.66463
          1.55134 1.73139 -0.648259 -0.691136 -0.746678 -0.699613
          -0.323724 -0.173142 -0.274683 -0.258514 -1.00764 -0.973045
          -0.935717 -0.936173 0.85072 0.701274 0.93758 0.70671
          -0.847736 -0.775399 -0.792856 -0.714006 -0.847837 -0.924358
          -0.870565 -0.897867 -0.586159 -0.699613 -0.620987 -0.685864
          1.6753 1.65371 1.57344 1.52316 -0.354446 -0.323724
          -0.382148 -0.258514 -1.1349 -1.14029 -1.13536 -1.12721
          -0.88369 -0.792856 -0.847736 -0.846966 -1.13884 -1.13799
          -1.1506 -1.13418 -0.157499 -0.0811408 -0.177216 -0.0967612
          1.28935 1.1614 1.22074 1.21446 -0.67509 -0.592942
          -0.648259 -0.699613 -0.788346 -0.796305 -0.737575 -0.839382
          -1.09164 -1.12213 -1.08662 -1.10211 -0.680673 -0.667253
          -0.662766 -0.727052 2.03097 2.05199 2.00681 1.96815
          -1.06883 -1.09216 -1.08369 -1.10146 -0.788346 -0.680571
          -0.79408 -0.720252 2.04031 2.11155 2.07562 2.10335
          1.87832 1.91203 1.92573 1.84397 -0.185183 -0.266652
          -0.194325 -0.210131 -0.938354 -0.971894 -0.949907 -1.01114
          0.070095 0.224806 0.196126 0.102868 1.28846 1.06277
          1.18186 1.06639 -0.77357 -0.847493 -0.803147 -0.752531
          -0.873521 -0.811141 -0.769458 -0.794129 -0.700148 -0.775399
          -0.718463 -0.651747 -1.0663 -1.03094 -1.06016 -1.06445
          0.859824 0.798318 0.662099 0.667341 -0.395565 -0.354419
          -0.314918 -0.361431 -0.9239 -0.929701 -0.961593 -0.984145
          -0.936452 -0.963905 -1.01923 -1.01045 -0.974703 -0.967376
          -0.916534 -0.966454 -0.0685765 0.025035 0.105877 0.148091
          -0.266283 -0.359668 -0.331415 -0.314081 -0.966454 -0.93916
          -0.992494 -0.907578 -1.12721 -1.1071 -1.12287 -1.12756
          -1.09393 -1.11961 -1.09673 -1.08695 -0.773249 -0.680673
          -0.662766 -0.727052 2.03117 2.05199 2.03097 1.96815
          -0.459665 -0.533937 -0.514974 -0.390274 -1.04012 -1.0239
          -0.962722 -1.0015 -0.956961 -0.941717 -0.985129 -1.0025
          -1.11282 -1.13087 -1.13003 -1.10819 -0.614662 -0.691136
          -0.593398 -0.627782 -0.750283 -0.74517 -0.811176 -0.773249
          -0.624716 -0.540991 -0.599053 -0.593162 -0.380621 -0.295772
          -0.266146 -0.372721 0.25432 0.361071 0.411117 0.167727
          1.98437 1.98437 2.00681 1.98437 -1.02696 -1.02112
          -1.04012 -1.02577 -0.141753 -0.188494 -0.174972 -0.123609
          -0.0143042 0.000948014 0 -0.0122043 -1.03462 -1.03781
          -1.0707 -1.0652 0.102868 0.0264647 0.070095 -0.0036774
          -0.843822 -0.788346 -0.760049 -0.847837 0.977767 1.04243
          1.12293 1.10918 2.08832 2.0408 2.04065 2.04554
          -0.0278639 0 -0.030091 0 -1.08531 -1.07992
          -1.10792 -1.08729 0.662099 0.483109 0.681063 0.667341
          0.070095 0.25432 0.196126 0.224806 1.89003 1.94003
          1.94868 1.88336 -0.788346 -0.888644 -0.796305 -0.90005
          -0.376901 -0.339919 -0.411059 -0.442633 -1.04277 -1.06675
          -1.04914 -1.03123 -1.04643 -1.08134 -1.07046 -1.10819
          0.25432 0.167727 0.411117 0.157778 -0.552338 -0.476973
          -0.48275 -0.439577 -0.485896 -0.372721 -0.460253 -0.467039
          -0.573164 -0.594233 -0.621601 -0.687888 1.41683 1.48789
          1.4184 1.34396 1.05637 1.01471 1.13145 1.03886
          1.73139 1.62788 1.70571 1.71521 -0.277549 -0.0685765
          -0.106809 -0.0630469 1.94509 2.04711 2.01221 2.00861
          -0.0143042 0 -0.00445242 -0.0122043 1.06277 0.964154
          1.00011 0.842115 -0.371606 -0.310567 -0.381395 -0.396732
          -0.371997 -0.266652 -0.313891 -0.337935 0.360327 0.187026
          0.361071 0.352982 1.56397 1.57344 1.65206 1.52277
          -1.13884 -1.13028 -1.13082 -1.12438 1.87832 1.90816
          1.89003 1.94003 -1.09164 -1.12213 -1.09497 -1.08662
          -0.685864 -0.553598 -0.620987 -0.586159 -0.0944656 -0.076386
          -0.146496 -0.102152 -1.01559 -1.01235 -0.987972 -1.0551
          -0.376901 -0.337935 -0.433933 -0.411059 -1.11521 -1.11961
          -1.12044 -1.08695 1.3922 1.4184 1.24339 1.22555
          -0.953821 -0.929422 -0.987972 -0.958737 -0.800895 -0.795337
          -0.691136 -0.743985 0.550593 0.491304 0.411117 0.582721
          -0.266146 -0.179655 -0.222739 -0.188363 -0.863214 -0.79656
          -0.791267 -0.875966 -1.13275 -1.12711 -1.1349 -1.13421
          -1.10196 -1.0749 -1.07992 -1.10413 -1.03067 -1.04643
          -1.01114 -1.07046 -1.07656 -1.04331 -1.07793 -1.08765
          1.3658 1.23858 1.36561 1.3809 -0.643321 -0.590591
          -0.565645 -0.637707 2.09814 2.02504 2.09406 2.02495
          -1.03123 -1.06675 -1.04914 -1.05959 -0.337935 -0.339147
          -0.37308 -0.394325 1.9288 1.9288 1.9288 1.91203
          1.17371 1.26309 1.34396 1.22074 -1.03505 -1.08499
          -1.08729 -1.0707 -0.375156 -0.314918 -0.372606 -0.375043
          0.977767 0.763847 0.798318 0.859824 1.06639 0.990943
          1.12416 1.26476 -1.10678 -1.07377 -1.11313 -1.10149
          -1.13561 -1.10374 -1.1071 -1.12126 -0.359668 -0.433246
          -0.371606 -0.331415 -1.12899 -1.12692 -1.1349 -1.12627
          -0.174494 -0.15829 -0.230557 -0.150911 1.4564 1.59578
          1.6395 1.5561 -0.572695 -0.543667 -0.606738 -0.467039
          -0.380621 -0.371997 -0.485896 -0.460253 0.830437 0.653264
          0.653257 0.746838 0.481869 0.54982 0.377404 0.469028
          -0.700148 -0.718463 -0.641772 -0.651747 -1.0749 -1.10196
          -1.05661 -1.08499 2.03117 2.13214 2.13771 2.12646
          -0.9239 -0.960482 -0.906916 -0.929701 1.96815 1.98846
          2.00681 1.93899 -0.219262 -0.279389 -0.257693 -0.248114
          -0.236551 -0.106809 -0.379639 -0.277549 -1.10851 -1.10631
          -1.12544 -1.1077 1.95795 2.02853 1.9882 2.06131
          1.83215 1.89198 1.89605 1.89003 -0.925889 -0.985977
          -0.951595 -0.926588 -0.051575 -0.0394255 -0.0695534 -0.0718477
          -0.120506 -0.0861697 -0.0599512 -0.100673 -0.951595 -0.926588
          -0.985347 -0.917892 -0.966454 -0.93618 -0.907578 -0.943555
          -0.481701 -0.492427 -0.384602 -0.517364 -0.525649 -0.651747
          -0.543667 -0.590591 0.0941603 -0.0723265 0.0640076 0.0844741
          -0.295772 -0.279389 -0.211183 -0.248114 -0.12574 -0.0695534
          -0.100673 -0.120506 -1.08369 -1.12026 -1.09692 -1.10146
          -0.375043 -0.346252 -0.40716 -0.33122 -0.794129 -0.704614
          -0.806808 -0.791267 0.558058 0.701274 0.734424 0.642558
          0.653257 0.503453 0.681063 0.54136 -1.10589 -1.06714
          -1.08471 -1.08431 -0.354446 -0.323724 -0.423532 -0.382148
          -1.08134 -1.08627 -1.11282 -1.10819 -0.181104 -0.277549
          -0.179374 -0.239155 -1.11165 -1.10889 -1.10589 -1.08471
          1.3922 1.22555 1.24339 1.18652 -0.0401906 -0.0492764
          -0.0426216 -0.084285 -0.0956363 -0.0892965 -0.274683 -0.173142
          2.03987 2.03117 1.96844 2.06513 -0.389929 -0.371997
          -0.385426 -0.460253 0.49707 0.54136 0.558058 0.701274
          0.653257 0.841573 0.842115 0.830437 -0.843822 -0.892945
          -0.963905 -0.942546 -1.11395 -1.13227 -1.13495 -1.13173
          1.06277 0.830437 0.964154 0.842115 0.910491 0.807915
          0.78162 0.668802 -1.13495 -1.13173 -1.10787 -1.11395
          1.89003 1.94817 1.95211 1.94868 -1.11972 -1.10458
          -1.1291 -1.12026 -0.563079 -0.560799 -0.487029 -0.565742
          -0.977787 -0.881613 -0.930871 -0.956961 -0.680571 -0.796305
          -0.685864 -0.737575 0.282314 0.363125 0.233816 0.168031
          -0.627782 -0.593398 -0.446417 -0.547456 0.215002 0.183378
          0.190096 0.0435163 -1.05651 -1.03123 -1.09393 -1.07046
          -0.0808166 -0.0695534 -0.051575 -0.0599512 1.87832 1.92573
          1.94003 1.90147 -1.08765 -1.04331 -1.04283 -1.03143
          1.83279 1.87832 1.88188 1.78842 -1.10889 -1.07793
          -1.06991 -1.09011 1.9636 2.03117 1.96844 2.03987
          -0.15829 -0.179655 -0.230557 -0.150911 -0.666373 -0.543652
          -0.630091 -0.641354 -0.79408 -0.796305 -0.888644 -0.869098
          0.282314 0.233816 0.0844741 0.025035 -0.181104 -0.0630469
          -0.146912 -0.0221902 -1.08662 -1.12213 -1.10963 -1.10666
          0.54982 0.481869 0.662797 0.475347 1.71781 1.71781
          1.76111 1.83094 -0.811141 -0.830822 -0.876853 -0.790747
          -0.561488 -0.527732 -0.591251 -0.495461 2.10335 2.09747
          2.08832 2.02507 -0.0245388 -0.0270135 0 -0.0285603
          -0.314918 -0.361431 -0.262145 -0.266146 -0.146912 -0.260464
          -0.277549 -0.395732 -1.02818 -1.05661 -0.980392 -1.00016
          -0.873521 -0.794129 -0.769458 -0.774123 -1.13561 -1.14029
          -1.12721 -1.11985 1.7903 1.87832 1.90816 1.89003
          -0.102152 -0.157499 -0.194325 -0.133957 -0.469631 -0.553598
          -0.603389 -0.492427 -0.175074 -0.222739 -0.266652 -0.194325
          -0.0944656 -0.0389618 -0.076386 -0.0580778 0.475347 0.491304
          0.498809 0.338667 -0.533937 -0.675075 -0.615241 -0.667561
          -0.0401906 -0.0426216 -0.024542 -0.0143042 -0.211183 -0.248114
          -0.188494 -0.149544 1.24339 1.17371 1.22074 1.14735
          -0.149544 -0.188363 -0.0979218 -0.150911 0.469028 0.363125
          0.559962 0.489621 -0.888644 -0.945405 -0.942546 -0.998166
          -0.174494 -0.211183 -0.149544 -0.188363 1.6753 1.79197
          1.84313 1.76022 -1.08431 -1.06016 -1.06714 -1.08471
          -0.133678 -0.0946761 -0.0665337 -0.0704409 -1.03065 -1.0146
          -1.04601 -1.06535 -0.885602 -0.806808 -0.791267 -0.794129
          1.00411 0.920525 1.05637 0.931257 -1.09202 -1.08357
          -1.11504 -1.08431 1.21542 1.24082 1.18186 1.08346
          0.830437 0.813037 0.653264 0.746838 -0.459932 -0.586159
          -0.553598 -0.410816 -0.0401906 -0.0250458 -0.0492764 -0.0861697
          1.84714 1.83094 1.86394 1.78754 -0.455721 -0.560799
          -0.487029 -0.563079 -0.149544 -0.188363 -0.150911 -0.100673
          -0.7108 -0.704614 -0.637707 -0.700148 -0.845827 -0.751434
          -0.857877 -0.800314 0.233816 0.148091 0.105877 0.025035
          0.85072 0.988245 0.93758 0.832093 -1.05651 -1.07046
          -1.07793 -1.00764 2.11483 2.10279 2.11155 2.03097
          1.175 1.05637 1.12293 1.00411 -0.1821 -0.326607
          -0.292848 -0.212676 -0.806808 -0.885602 -0.868497 -0.873521
          -0.00445242 -0.0123778 -0.0497382 -0.0374226 -0.0379752 0.0779313
          0.0473313 0.106764 -0.998166 -1.03505 -1.05651 -1.06388
          1.82271 1.86394 1.9141 1.89649 -1.02438 -0.958975
          -1.0015 -1.0007 -1.04979 -1.04155 -1.08417 -1.06633
          -0.0791758 -0.0963933 -0.146496 -0.0944656 -0.643506 -0.606738
          -0.657779 -0.572695 1.71521 1.73139 1.83282 1.70571
          -0.143159 -0.188363 -0.149544 -0.210131 1.43571 1.63277
          1.52752 1.4184 -1.08085 -1.04785 -1.08417 -1.04979
          -0.77357 -0.752531 -0.685354 -0.845006 -0.839382 -0.870565
          -0.86543 -0.949907 1.38913 1.1614 1.30124 1.28935
          0.920525 1.01471 1.05637 1.03886 1.60977 1.44533
          1.56397 1.52277 0.196126 0.0264647 0.102868 0.181263
          2.00681 2.06627 2.10138 1.98437 -0.262841 -0.323366
          -0.410816 -0.469631 -1.13408 -1.13564 -1.13874 -1.13884
          0 0 -0.0278639 0 2.03787 1.98846
          2.07781 2.03117 1.90816 1.89003 1.90057 1.81379
          1.21446 1.03208 1.04243 1.05637 -0.410816 -0.262841
          -0.384524 -0.24624 -0.151989 -0.135516 -0.182455 -0.19697
          -0.606076 -0.675075 -0.615241 -0.533937 -0.385426 -0.371997
          -0.372721 -0.460253 -1.04012 -0.962722 -0.966454 -1.0015
          2.03787 2.03117 2.13214 2.13771 -0.795337 -0.849266
          -0.748962 -0.743985 1.89605 1.89003 1.95211 1.94868
          -0.142666 0.0352962 -0.151099 -0.0718907 -0.211183 -0.248114
          -0.219262 -0.188494 -0.48275 -0.375156 -0.395565 -0.476973
          -0.839382 -0.86543 -0.80429 -0.917065 -1.11706 -1.08417
          -1.11475 -1.10678 -0.707837 -0.684281 -0.701896 -0.643288
          -0.867566 -0.743985 -0.800895 -0.717461 1.62788 1.59758
          1.71521 1.55042 -0.378284 -0.571006 -0.449962 -0.520796
          0.475347 0.338667 0.498809 0.351904 -0.460253 -0.450311
          -0.516463 -0.504466 -1.09216 -1.11305 -1.11295 -1.12026
          -0.865373 -0.907578 -0.852965 -0.811176 -0.295772 -0.310567
          -0.372721 -0.381395 -0.446417 -0.547456 -0.593398 -0.375589
          1.98437 2.06131 2.12041 2.02853 -1.13082 -1.13595
          -1.13884 -1.13421 -0.325468 -0.337935 -0.389929 -0.433933
          -0.0811408 -0.076386 -0.0374226 -0.0497382 0.0687832 -0.106809
          0.105101 -0.0685765 0.974223 0.934743 1.01471 0.88187
          0.93758 0.832093 0.83647 0.70671 1.175 1.28935
          1.05637 1.13145 -1.06883 -1.02314 -1.04601 -1.03065
          -0.469631 -0.546765 -0.620987 -0.459932 -0.717461 -0.855794
          -0.800895 -0.867566 0.0687832 0.105101 0.146292 0.303109
          -1.12604 -1.09673 -1.08729 -1.10846 1.55134 1.48789
          1.41683 1.53891 -0.0956363 -0.274683 -0.212325 -0.262841
          -0.0822399 -0.0698736 -0.0646586 -0.0963933 1.34734 1.42249
          1.33583 1.51567 2.04142 1.95539 1.95549 1.95943
          -0.375043 -0.323621 -0.394513 -0.313891 -0.938354 -0.971894
          -1.03123 -0.982387 1.95539 1.89904 1.90057 1.90131
          -0.359668 -0.459665 -0.433246 -0.390274 -0.262145 -0.19697
          -0.216222 -0.230557 -0.207257 -0.14598 -0.104373 -0.156252
          -0.685864 -0.748962 -0.796305 -0.746878 -0.179655 -0.19082
          -0.249986 -0.191247 -1.13227 -1.13884 -1.13173 -1.13082
          1.55042 1.55134 1.62788 1.44669 -0.680571 -0.796305
          -0.737575 -0.788346 -0.533937 -0.667561 -0.615241 -0.514974
          -1.13564 -1.12877 -1.14815 -1.13799 -0.390274 -0.433246
          -0.395565 -0.403315 -0.276106 -0.185183 -0.266652 -0.194325
          1.96844 1.93412 1.91859 1.97551 -0.375156 -0.272863
          -0.313891 -0.266146 0.746838 0.941905 0.830437 0.813037
          -0.953749 -0.917065 -0.961802 -0.895068 -1.13884 -1.13874
          -1.14588 -1.14815 0.0640076 -0.0723265 -0.00656958 -0.0882344
          2.11979 2.12646 2.09401 2.12334 0.49707 0.489621
          0.353601 0.469028 -1.07046 -1.04643 -1.10819 -1.06991
          -0.460818 -0.476973 -0.40716 -0.375043 -1.02818 -0.980392
          -0.975666 -1.00016 -0.707837 -0.684281 -0.790747 -0.701896
          1.08346 1.1531 1.0193 1.18361 0 0
          0 -0.0278639 1.9636 1.9141 1.9938 1.96844
          1.89605 1.94817 1.95211 1.89003 -0.257693 -0.332616
          -0.274965 -0.319843 -0.0229973 -0.0535907 -0.0380729 -0.0430308
          -1.12756 -1.11706 -1.12126 -1.10678 1.73139 1.63277
          1.62788 1.55134 -0.375156 -0.314918 -0.375043 -0.272863
          1.83677 1.85818 1.89605 1.82278 -1.05661 -1.07992
          -1.08729 -1.11213 -0.0599512 -0.0401906 -0.0245388 -0.051575
          1.18361 1.04712 1.21542 1.26309 0.54982 0.54136
          0.49707 0.701274 0.54982 0.559962 0.49707 0.469028
          -0.236551 -0.379639 -0.449962 -0.410816 1.06277 1.00011
          1.07544 1.18186 0.833553 0.845586 0.934743 0.800478
          -0.460818 -0.439577 -0.40716 -0.476973 -0.106809 -0.146912
          -0.260464 -0.277549 0.25432 0.386022 0.453197 0.224806
          -0.030091 -0.0646586 -0.0484198 -0.0342029 -1.08085 -1.11706
          -1.10149 -1.08417 -0.211183 -0.295772 -0.248114 -0.266146
          1.90816 1.96815 1.94817 1.98205 2.01221 2.00861
          2.07562 2.04031 -0.236551 -0.277549 -0.379639 -0.24624
          -0.794661 -0.667561 -0.714006 -0.675075 0.54982 0.559962
          0.662797 0.70671 -0.0979218 -0.143159 -0.149544 -0.084285
          1.06639 1.00011 1.1531 0.988245 -1.12126 -1.07335
          -1.1071 -1.08417 -0.141753 -0.174972 -0.0930104 -0.123609
          -0.624716 -0.593162 -0.680673 -0.589371 1.28935 1.21446
          1.4291 1.37992 -0.446417 -0.432786 -0.375589 -0.305608
          0.303109 0.360895 0.483109 0.288513 -1.12756 -1.1071
          -1.10678 -1.12126 -0.620987 -0.716274 -0.546765 -0.603389
          -0.590591 -0.683439 -0.643321 -0.589371 -1.08369 -1.11295
          -1.12026 -1.09216 1.60977 1.56397 1.65206 1.52277
          -0.459932 -0.384524 -0.586159 -0.410816 -1.06714 -1.02696
          -1.09888 -1.08441 -0.0840872 0.070095 0.0195096 0.196126
          2.03987 2.13771 2.03117 2.06513 -1.08222 -1.08471
          -1.11165 -1.08441 0.920525 1.05637 1.13145 1.00411
          -1.12711 -1.11313 -1.12608 -1.12544 -0.846966 -0.791267
          -0.77883 -0.775399 -0.873521 -0.885602 -0.880859 -0.794129
          -0.847493 -0.91903 -0.849714 -0.845006 -0.478517 -0.560752
          -0.572695 -0.525649 -0.0245388 -0.0599512 -0.032129 -0.0250458
          -0.651747 -0.714006 -0.7108 -0.775399 -0.942546 -0.951595
          -0.985347 -0.917892 -0.867817 -0.800895 -0.876171 -0.79789
          -0.0840872 -0.142666 -0.0718907 -0.0036774 1.83094 1.84313
          1.81382 1.71781 -0.942546 -1.01045 -1.01923 -0.985347
          -0.517364 -0.492427 -0.384602 -0.394055 -1.13884 -1.14815
          -1.14588 -1.1506 -1.02696 -1.02112 -0.992494 -1.03468
          -0.746878 -0.79408 -0.841647 -0.869098 -0.590591 -0.525649
          -0.485896 -0.543667 -0.667253 -0.643321 -0.637707 -0.704614
          -0.895268 -0.887682 -0.830437 -0.847736 -0.967376 -0.964579
          -1.03094 -0.958737 -0.722719 -0.718463 -0.641772 -0.700148
          1.94868 2.01143 1.94817 1.95211 1.51115 1.51567
          1.69449 1.59578 -0.847736 -0.77883 -0.775399 -0.846966
          -1.04331 -1.07793 -1.04742 -1.07656 -1.08369 -1.08222
          -1.10458 -1.07142 -0.381395 -0.372721 -0.380621 -0.467039
          -0.410816 -0.375589 -0.24624 -0.384524 1.6753 1.79197
          1.76022 1.65371 -1.04173 -1.0652 -1.06388 -1.0865
          -0.977787 -0.962701 -0.956961 -1.02948 -0.051575 -0.0229973
          -0.0535907 -0.0245388 -0.125328 -0.143068 -0.258256 -0.264982
          -1.11521 -1.12044 -1.10889 -1.08695 -0.769458 -0.700148
          -0.643321 -0.774123 1.43571 1.22555 1.3922 1.18652
          -0.890416 -0.863214 -0.791267 -0.875966 0.215002 0.303109
          0.433358 0.420265 -0.980392 -0.925889 -1.00016 -0.997365
          -0.0379752 0.00567184 -0.179374 -0.176552 -0.0630469 -0.0379752
          -0.179374 -0.176552 -0.794661 -0.675075 -0.714006 -0.760958
          -0.614662 -0.586159 -0.691136 -0.581238 1.28846 1.18186
          1.21679 1.06639 -0.857877 -0.797427 -0.922852 -0.830822
          -0.568469 -0.683439 -0.590591 -0.589371 -0.0371014 -0.0270135
          -0.051575 -0.0285603 -1.12544 -1.12711 -1.13275 -1.13421
          1.78898 1.77496 1.85165 1.88195 -0.609731 -0.520796
          -0.395732 -0.492427 -0.971224 -1.03428 -1.03123 -0.982387
          -0.794129 -0.707837 -0.811141 -0.769458 -0.664582 -0.589968
          -0.517364 -0.610499 -0.381395 -0.295772 -0.380621 -0.372721
          -1.10889 -1.08431 -1.06016 -1.09202 0.749164 0.608061
          0.667341 0.577023 1.81379 1.83215 1.74814 1.72946
          1.34396 1.22074 1.30124 1.14735 2.03117 2.05199
          2.07781 2.13214 -0.0667112 -0.102152 -0.084285 -0.133957
          -0.880859 -0.967376 -0.873521 -0.966454 -1.04979 -1.03009
          -1.06633 -1.07377 0.0941603 0.0640076 0.157778 0.0844741
          -0.990689 -0.922852 -0.958737 -0.857877 -1.13561 -1.1071
          -1.10374 -1.11985 -0.956961 -0.88369 -0.941717 -0.962701
          -0.084285 -0.0492764 -0.0426216 -0.0800788 -0.956961 -0.881613
          -0.887682 -0.895268 1.98846 2.06627 2.05199 2.00681
          -1.11872 -1.11395 -1.10787 -1.08765 -1.10678 -1.09692
          -1.11049 -1.11972 -0.323724 -0.274683 -0.423532 -0.258514
          -0.790747 -0.880859 -0.849032 -0.929422 -0.525649 -0.615241
          -0.572695 -0.606738 -0.24624 -0.106809 -0.236551 -0.277549
          -0.210131 -0.188494 -0.143159 -0.194536 -0.219262 -0.257693
          -0.188494 -0.248114 1.94817 2.03097 2.04031 1.98205
          -0.839382 -0.814626 -0.716274 -0.762226 -0.513482 -0.476973
          -0.561488 -0.460818 -0.0540615 -0.0749921 -0.0342029 -0.0698736
          -0.917065 -0.876171 -0.80429 -0.862205 0.988245 0.83647
          0.832093 1.0193 0.68783 0.608061 0.655168 0.749164
          -0.746878 -0.849714 -0.869098 -0.845006 -0.371997 -0.337935
          -0.394325 -0.433933 -1.1349 -1.12287 -1.12962 -1.13595
          -0.560752 -0.700307 -0.643506 -0.615241 -1.14317 -1.1202
          -1.10889 -1.13003 -1.12128 -1.13564 -1.12266 -1.09888
          -0.876171 -0.976381 -0.862205 -0.917065 -1.08953 -1.11282
          -1.10803 -1.10666 -0.875966 -0.841123 -0.79656 -0.801634
          -0.0245388 -0.0599512 -0.0695534 -0.0621598 -0.354446 -0.473971
          -0.503416 -0.446417 1.21446 1.1614 1.22074 1.03886
          1.56307 1.48789 1.53891 1.44473 0.857926 0.941905
          0.964154 0.977767 0 0 0 -0.0229973
          1.90816 1.94003 1.87832 1.92573 0.833553 0.934743
          0.910491 0.807915 2.07781 2.13269 2.13995 2.12329
          -0.720252 -0.680571 -0.702508 -0.788346 0.39627 0.215311
          0.195354 0.351904 -1.09393 -1.08695 -1.05651 -1.07046
          0.681063 0.483109 0.662099 0.481869 -1.0698 -1.04012
          -1.01657 -1.0015 -0.331415 -0.433246 -0.371606 -0.381395
          -0.865373 -0.811176 -0.852965 -0.773249 -0.895268 -0.961593
          -0.954481 -0.956961 1.38557 1.4564 1.34734 1.33583
          -0.258256 -0.264982 -0.354446 -0.41916 -0.375156 -0.313891
          -0.380621 -0.266146 0.988245 1.08346 0.832093 1.00011
          -0.936452 -0.963905 -1.01045 -0.942546 -0.685354 -0.610887
          -0.699179 -0.746878 -0.102152 -0.157499 -0.133957 -0.0967612
          -1.12438 -1.10792 -1.13082 -1.10666 0.842115 0.681063
          0.653257 0.653264 -0.133957 -0.157499 -0.177216 -0.0967612
          -1.01114 -0.998765 -0.949907 -0.953749 -1.02908 -0.997365
          -1.00016 -1.05661 1.18186 1.38557 1.28846 1.24082
          -0.847736 -0.792856 -0.775399 -0.77883 -0.846966 -0.791267
          -0.75591 -0.77883 -0.326607 -0.329892 -0.432786 -0.462169
          -0.801634 -0.704614 -0.770226 -0.712925 -0.194325 -0.154028
          -0.133957 -0.175074 0.608061 0.416224 0.494116 0.514661
          2.02495 2.10279 2.03097 2.09747 -0.0882344 -0.217498
          -0.158079 0.00567184 -0.936452 -0.942546 -1.01923 -0.985347
          -0.100673 -0.0599512 -0.0535907 -0.0979218 -0.129841 -0.0978631
          -0.084285 -0.143159 -1.02334 -1.06445 -1.03094 -1.0663
          -0.0599512 -0.0245388 -0.0695534 -0.051575 1.06639 0.990943
          0.988245 1.12416 0.85072 0.988245 0.990943 0.93758
          -0.790747 -0.811141 -0.849032 -0.880859 -0.280035 -0.282328
          -0.272863 -0.19082 1.89605 1.94509 1.91561 1.95211
          -0.593398 -0.748962 -0.551896 -0.678307 -0.205618 -0.28944
          -0.262145 -0.266283 -0.803147 -0.884212 -0.826828 -0.849266
          -0.790747 -0.701896 -0.769458 -0.811141 -0.989246 -0.971224
          -0.971894 -0.924358 1.56307 1.66463 1.55134 1.63277
          0.102868 0.0264647 -0.0036774 0.181263 1.18186 1.00011
          1.08346 1.1531 -1.11282 -1.13052 -1.12534 -1.13087
          0.813037 0.941905 0.830437 0.964154 1.84397 1.91203
          1.92573 1.9288 -0.961802 -1.00764 -0.953749 -0.935717
          -0.790747 -0.701896 -0.849032 -0.769458 -1.12287 -1.12711
          -1.13067 -1.13595 -1.0015 -0.962722 -0.966454 -0.93618
          -0.194325 -0.154028 -0.102152 -0.133957 1.3809 1.28846
          1.18186 1.38557 1.90816 1.93899 1.96815 1.98205
          -1.12128 -1.1089 -1.08441 -1.09322 -0.568469 -0.707837
          -0.590591 -0.683439 -0.963537 -1.03184 -1.01045 -1.02195
          -1.08222 -1.1089 -1.10458 -1.07142 0.653257 0.433358
          0.653264 0.503453 -1.06714 -1.0335 -1.02577 -1.06016
          -1.12026 -1.11295 -1.1291 -1.13262 -1.10792 -1.13173
          -1.10787 -1.11521 -0.876171 -0.80429 -0.79789 -0.800895
          -0.665753 -0.774606 -0.700182 -0.717461 -0.595206 -0.665753
          -0.700182 -0.614662 -1.13418 -1.14484 -1.14317 -1.13003
          -1.10851 -1.12544 -1.12213 -1.1077 -0.337935 -0.339147
          -0.394325 -0.42744 -0.699179 -0.746878 -0.841647 -0.845006
          -1.06388 -1.0977 -1.0707 -1.09497 -1.08085 -1.08417
          -1.11475 -1.11706 -1.03067 -1.04643 -1.07046 -1.06991
          -0.656534 -0.752531 -0.77357 -0.687888 -0.396732 -0.332616
          -0.310567 -0.381395 0 -0.0374226 -0.0123778 -0.00445242
          -1.00623 -1.01114 -0.917065 -0.976381 1.4792 1.3658
          1.36561 1.50407 0.667341 0.490675 0.577023 0.608061
          -0.210131 -0.252972 -0.313497 -0.281814 -1.08765 -1.03143
          -1.04283 -1.0635 1.96815 1.93412 1.91649 1.90057
          -0.390274 -0.514974 -0.433246 -0.403315 -0.803147 -0.910515
          -0.884212 -0.849266 -1.12266 -1.13081 -1.13408 -1.13028
          -1.13408 -1.13081 -1.13884 -1.13028 -0.800314 -0.794129
          -0.830437 -0.700148 -0.135516 -0.151989 -0.182455 -0.096908
          -0.462169 -0.594233 -0.551896 -0.573164 -1.04012 -1.0239
          -1.0015 -1.02438 -1.0551 -1.02334 -1.08357 -1.01559
          -0.84509 -0.814626 -0.716274 -0.839382 1.95539 2.03117
          2.04142 1.96815 -0.971894 -0.924358 -0.897867 -0.938354
          0.667341 0.798318 0.749164 0.763847 -0.971224 -1.04914
          -0.989246 -1.03123 1.53596 1.44533 1.4291 1.56397
          -1.11872 -1.08765 -1.09011 -1.0635 1.94868 1.90147
          1.88336 1.94003 1.4291 1.38913 1.41683 1.30124
          -1.11213 -1.1078 -1.12604 -1.12909 -1.13564 -1.12197
          -1.14815 -1.12877 0.180975 0.187026 0.196126 0.0326147
          1.90816 1.93899 1.91203 1.91649 1.16296 1.18361
          1.17371 1.05157 -1.10792 -1.12627 -1.12909 -1.1078
          -0.179429 -0.211183 -0.149544 -0.100673 1.9288 1.9288
          1.91203 1.84313 1.83094 1.76111 1.71781 1.81351
          1.86394 1.83282 1.88582 1.82752 -0.133678 -0.15829
          -0.10608 -0.0665337 -1.13564 -1.10589 -1.12266 -1.09888
          -1.12287 -1.09202 -1.11049 -1.1071 -0.875966 -0.79656
          -0.791267 -0.801634 -0.143068 -0.354446 -0.258514 -0.173142
          -0.179655 -0.156252 -0.19082 -0.191247 -1.05661 -1.07992
          -1.11213 -1.0749 -0.960625 -0.925889 -1.00016 -0.951595
          -1.12213 -1.12406 -1.10666 -1.10211 -0.863214 -0.906916
          -0.841123 -0.929701 -1.08344 -1.08627 -1.11282 -1.06675
          1.73139 1.70657 1.78832 1.70571 -1.08953 -1.11282
          -1.10666 -1.07206 -0.847837 -0.892945 -0.870565 -0.924358
          -0.942546 -0.963537 -1.01045 -0.998166 -0.459665 -0.533937
          -0.478517 -0.433246 -0.433246 -0.514974 -0.525649 -0.48275
          0.215002 0.360895 0.433358 0.303109 -1.0698 -1.0015
          -1.01657 -1.04905 -1.0176 -0.987319 -1.02438 -1.02314
          -1.03123 -1.09393 -1.06675 -1.05959 1.17371 1.18361
          1.26309 1.04712 -1.12044 -1.14484 -1.13418 -1.13003
          1.175 1.05637 1.00411 1.13145 1.51567 1.38557
          1.3809 1.52233 1.89649 1.89904 1.86394 1.96844
          -0.379639 -0.610887 -0.492427 -0.520796 -1.12544 -1.13421
          -1.12406 -1.12608 -0.963537 -1.01045 -1.00984 -1.02195
          1.4564 1.31556 1.41079 1.40219 1.91948 1.89136
          1.88195 1.85599 -0.722719 -0.800314 -0.718463 -0.700148
          -0.565742 -0.563079 -0.455721 -0.487029 1.4564 1.4178
          1.55042 1.41079 -0.331415 -0.310567 -0.371606 -0.28944
          1.57455 1.6753 1.62844 1.52316 -0.476973 -0.439577
          -0.495461 -0.460818 -0.384524 -0.375589 -0.24624 -0.222251
          -0.19697 -0.182455 -0.216222 -0.230557 -0.433246 -0.371606
          -0.381395 -0.396732 -0.727052 -0.667253 -0.770226 -0.774123
          -0.0540615 -0.00942474 -0.0342029 -0.0490048 -1.10851 -1.11263
          -1.12544 -1.10631 1.4291 1.4178 1.41683 1.53891
          -0.683439 -0.643288 -0.701896 -0.593392 -0.589371 -0.643288
          -0.683439 -0.593392 0.964154 0.830437 0.813037 0.842115
          -0.895068 -0.86543 -0.80429 -0.795337 -1.11163 -1.12964
          -1.13087 -1.10446 -0.687888 -0.621601 -0.678307 -0.594233
          -0.354446 -0.503416 -0.323724 -0.384524 0.854408 0.647563
          0.781435 0.68783 1.40219 1.4564 1.53837 1.55042
          -0.862268 -0.843822 -0.963905 -0.942546 1.90131 1.90057
          1.89198 1.83282 -0.514974 -0.48275 -0.403315 -0.552338
          0.854408 0.598091 0.647563 0.68783 1.79745 1.89003
          1.87832 1.81379 -0.219262 -0.257693 -0.174972 -0.188494
          -0.423532 -0.503416 -0.595206 -0.581238 1.24102 1.30879
          1.21814 1.12293 0.763847 0.749164 0.667341 0.577023
          -1.05651 -1.01114 -1.07046 -1.00764 -0.593162 -0.643321
          -0.565645 -0.667253 -1.09216 -1.06883 -1.087 -1.06535
          -1.12406 -1.13421 -1.11961 -1.12534 -0.360852 -0.469631
          -0.485872 -0.404598 -0.0245388 -0.0401906 -0.0599512 -0.0250458
          -0.687888 -0.803147 -0.752531 -0.77357 -0.774123 -0.773249
          -0.811176 -0.823936 2.01079 2.03117 2.04142 1.95539
          -0.314918 -0.230557 -0.280035 -0.272863 -0.975666 -1.04399