<?xml version="1.0"?>
<VTKFile type="UnstructuredGrid" version="0.1" byte_order="LittleEndian" compressor="vtkZLibDataCompressor">
  <UnstructuredGrid>
    <Piece NumberOfPoints="21868" NumberOfCells="5467">
      <PointData Scalars="u2" Vectors="DisplacementSolutionVector">
        <DataArray type="Float64" Name="u2" format="ascii" RangeMin="-0.617884" RangeMax="1.09618">
          0.362052 0.346431 0.273847 0.26482 -0.462474 -0.424531
          -0.483101 -0.451585 -0.607479 -0.610537 -0.598996 -0.604306
          -0.557066 -0.577714 -0.573364 -0.577397 -0.14341 -0.0124784
          -0.0873447 -0.0831016 -0.47284 -0.466267 -0.449559 -0.497359
          0.288966 0.222628 0.266939 0.315495 1.03556 0.999356
          1.03394 1.00424 0.919067 0.892396 0.939445 0.964402
          -0.269019 -0.300825 -0.267441 -0.269956 -0.326806 -0.357328
          -0.34214 -0.396044 -0.0148698 -0.0373548 -0.0359205 -0.0274994
          -0.539299 -0.510375 -0.539178 -0.501965 0.929042 0.918357
          0.959385 0.941827 -0.0831016 -0.14341 -0.0124784 -0.0736489
          -0.104985 -0.0931318 -0.0748949 -0.0727868 0.818175 0.834652
          0.771063 0.871623 -0.349927 -0.369417 -0.401283 -0.375313
          -0.191288 -0.123642 -0.171147 -0.164205 -0.546836 -0.5242
          -0.503281 -0.503908 0.37568 0.293154 0.422228 0.29799
          -0.410755 -0.372513 -0.382811 -0.34114 -0.458207 -0.501778
          -0.46894 -0.487696 -0.314557 -0.375313 -0.332993 -0.36495
          0.835634 0.823583 0.781563 0.753101 -0.205679 -0.191288
          -0.220655 -0.164205 -0.602749 -0.601565 -0.600207 -0.589823
          -0.43155 -0.382811 -0.410755 -0.411734 -0.606765 -0.605534
          -0.615798 -0.611269 -0.0826292 -0.0448786 -0.0918569 -0.051966
          0.620429 0.545908 0.580698 0.576606 -0.364512 -0.322149
          -0.349927 -0.375313 -0.421164 -0.424531 -0.394107 -0.451713
          -0.592202 -0.605091 -0.591306 -0.595495 -0.326509 -0.319052
          -0.317028 -0.348043 1.03044 1.04279 1.0076 0.994249
          -0.551364 -0.56841 -0.556536 -0.57823 -0.421164 -0.3605
          -0.421372 -0.38119 1.0378 1.08158 1.063 1.07521
          0.938067 0.952366 0.962865 0.918228 -0.0946214 -0.132948
          -0.0994993 -0.104985 -0.509551 -0.528465 -0.514186 -0.550484
          -0.0124784 0.0577277 0.0429092 0.00411554 0.615495 0.48689
          0.555971 0.490251 -0.404675 -0.446413 -0.425111 -0.396044
          -0.4245 -0.391712 -0.3705 -0.382787 -0.335303 -0.372513
          -0.343334 -0.311202 -0.539299 -0.516593 -0.536958 -0.539178
          0.375425 0.34242 0.270179 0.274001 -0.191319 -0.171585
          -0.154251 -0.175025 -0.455538 -0.456825 -0.4751 -0.492054
          -0.503135 -0.521842 -0.551974 -0.548618 -0.483115 -0.477368
          -0.449159 -0.477031 -0.0716904 -0.0299528 0.00556753 0.0269334
          -0.128993 -0.172689 -0.160316 -0.152133 -0.477031 -0.4616
          -0.492321 -0.442996 -0.589823 -0.572757 -0.587157 -0.593287
          -0.596049 -0.606174 -0.595416 -0.591783 -0.371754 -0.326509
          -0.317028 -0.348043 1.03604 1.04279 1.03044 0.994249
          -0.219229 -0.254014 -0.245591 -0.187651 -0.522822 -0.513139
          -0.474792 -0.498097 -0.471625 -0.465409 -0.492048 -0.502773
          -0.605701 -0.613989 -0.614347 -0.605756 -0.330755 -0.369417
          -0.317222 -0.336744 -0.361795 -0.358657 -0.391734 -0.371754
          -0.300863 -0.261287 -0.28843 -0.284289 -0.184676 -0.144184
          -0.131573 -0.180202 0.0692919 0.116801 0.140613 0.0266296
          0.992186 0.992186 1.0076 0.992186 -0.514976 -0.509884
          -0.522822 -0.513988 -0.0693774 -0.0931318 -0.0861512 -0.0620695
          -0.00798877 0.000284983 0 -0.00693662 -0.561118 -0.561124
          -0.581108 -0.578393 0.00411554 -0.0334379 -0.0124784 -0.0446928
          -0.452771 -0.421164 -0.406363 -0.458207 0.441455 0.477071
          0.524128 0.514154 1.06259 1.02841 1.02849 1.03528
          -0.0158737 0 -0.0179501 0 -0.589217 -0.582806
          -0.598996 -0.589306 0.270179 0.181751 0.281712 0.274001
          -0.0124784 0.0692919 0.0429092 0.0577277 0.949524 0.968415
          0.982176 0.945894 -0.421164 -0.476443 -0.424531 -0.483101
          -0.184187 -0.16821 -0.201109 -0.215126 -0.571365 -0.583032
          -0.573364 -0.562779 -0.573116 -0.59224 -0.584442 -0.605756
          0.0692919 0.0266296 0.140613 0.0225208 -0.264202 -0.230152
          -0.231736 -0.212972 -0.233291 -0.180202 -0.221329 -0.223718
          -0.302569 -0.315558 -0.326806 -0.3614 0.694364 0.736088
          0.696053 0.652694 0.485717 0.461281 0.528453 0.475443
          0.871623 0.814724 0.859128 0.862298 -0.163731 -0.0716904
          -0.0853689 -0.0669595 0.988705 1.04991 1.02618 1.02395
          -0.00798877 0 -0.00317775 -0.00693662 0.48689 0.43286
          0.453532 0.366123 -0.178468 -0.149963 -0.183844 -0.19048
          -0.18142 -0.132948 -0.155184 -0.166307 0.118445 0.0354087
          0.116801 0.114738 0.778368 0.781563 0.826217 0.756258
          -0.606765 -0.597055 -0.607479 -0.601903 0.938067 0.953422
          0.949524 0.968415 -0.592202 -0.605091 -0.594765 -0.591306
          -0.36495 -0.296868 -0.332993 -0.314557 -0.0516314 -0.0423778
          -0.0773241 -0.0545277 -0.507128 -0.504352 -0.490656 -0.533339
          -0.184187 -0.166307 -0.21049 -0.201109 -0.604306 -0.606174
          -0.608411 -0.591783 0.681261 0.696053 0.59525 0.585769
          -0.470143 -0.456047 -0.490656 -0.471353 -0.428833 -0.424615
          -0.369417 -0.396985 0.209665 0.182148 0.140613 0.226339
          -0.131573 -0.0918145 -0.112705 -0.0945442 -0.420885 -0.385427
          -0.381452 -0.426503 -0.607226 -0.59472 -0.602749 -0.606635
          -0.59431 -0.579963 -0.582806 -0.593911 -0.563005 -0.573116
          -0.550484 -0.584442 -0.582338 -0.565105 -0.586673 -0.589541
          0.660272 0.586952 0.661841 0.66868 -0.307637 -0.282402
          -0.27071 -0.304688 1.0631 1.01445 1.06038 1.01785
          -0.562779 -0.583032 -0.573364 -0.577714 -0.166307 -0.167938
          -0.183665 -0.192492 0.964402 0.964402 0.964402 0.952366
          0.554729 0.60553 0.652694 0.580698 -0.560632 -0.587347
          -0.589306 -0.581108 -0.182875 -0.154251 -0.181463 -0.183591
          0.441455 0.325313 0.34242 0.375425 0.490251 0.45118
          0.525818 0.603744 -0.576022 -0.554683 -0.586375 -0.580329
          -0.596435 -0.56772 -0.572757 -0.58394 -0.172689 -0.20773
          -0.178468 -0.160316 -0.600231 -0.593521 -0.602749 -0.601787
          -0.0872548 -0.0807488 -0.114873 -0.0769447 0.715046 0.79386
          0.818343 0.77037 -0.273168 -0.259877 -0.289606 -0.223718
          -0.184676 -0.18142 -0.233291 -0.221329 0.359552 0.266939
          0.266951 0.315495 0.179964 0.215118 0.131345 0.175661
          -0.335303 -0.343334 -0.306575 -0.311202 -0.579963 -0.59431
          -0.571445 -0.587347 1.03604 1.09087 1.09618 1.08958
          -0.455538 -0.477707 -0.445396 -0.456825 0.994249 1.00424
          1.0076 0.967832 -0.106801 -0.135303 -0.125053 -0.122071
          -0.145402 -0.0853689 -0.209163 -0.163731 -0.594197 -0.588037
          -0.598679 -0.59422 0.97766 1.01616 0.999356 1.03743
          0.92421 0.9563 0.961097 0.949524 -0.4944 -0.528633
          -0.511432 -0.493723 -0.026493 -0.0184177 -0.0335524 -0.0349902
          -0.0589362 -0.0432173 -0.029839 -0.0507497 -0.511432 -0.493723
          -0.530527 -0.490188 -0.477031 -0.459335 -0.442996 -0.4627
          -0.257511 -0.264953 -0.212564 -0.278857 -0.251108 -0.311202
          -0.259877 -0.282402 -0.00337952 -0.0778743 -0.0163549 -0.00572604
          -0.144184 -0.135303 -0.104158 -0.122071 -0.0616949 -0.0335524
          -0.0507497 -0.0589362 -0.556536 -0.59029 -0.570157 -0.57823
          -0.183591 -0.170381 -0.199185 -0.164258 -0.382787 -0.337261
          -0.389167 -0.381452 0.222664 0.293154 0.312661 0.265476
          0.266951 0.192337 0.281712 0.213013 -0.571117 -0.542343
          -0.55443 -0.555601 -0.205679 -0.191288 -0.239709 -0.220655
          -0.59224 -0.594759 -0.605701 -0.605756 -0.116421 -0.163731
          -0.119836 -0.144824 -0.576103 -0.574159 -0.571117 -0.55443
          0.681261 0.585769 0.59525 0.563365 -0.0206394 -0.0251656
          -0.0225702 -0.0436944 -0.0873447 -0.0880543 -0.171147 -0.123642
          1.04334 1.03604 0.998789 1.05426 -0.188891 -0.18142
          -0.186335 -0.221329 0.191131 0.213013 0.222664 0.293154
          0.266951 0.366047 0.366123 0.359552 -0.452771 -0.482107
          -0.521842 -0.508049 -0.601484 -0.606824 -0.614932 -0.610537
          0.48689 0.359552 0.43286 0.366123 0.404996 0.346431
          0.333469 0.273847 -0.614932 -0.610537 -0.601281 -0.601484
          0.949524 0.982276 0.990392 0.982176 -0.58693 -0.571251
          -0.593334 -0.59029 -0.269019 -0.267441 -0.232947 -0.269956
          -0.482959 -0.428346 -0.45509 -0.471625 -0.3605 -0.424531
          -0.36495 -0.394107 0.0852052 0.127083 0.0653578 0.0357389
          -0.336744 -0.317222 -0.248147 -0.294327 0.0590978 0.0456061
          0.0463107 -0.0166612 -0.574662 -0.562779 -0.596049 -0.584442
          -0.0407497 -0.0335524 -0.026493 -0.029839 0.938067 0.962865
          0.968415 0.951491 -0.589541 -0.565105 -0.56754 -0.5595
          0.917689 0.938067 0.93937 0.893233 -0.604088 -0.586673
          -0.584649 -0.59445 1.00014 1.03604 0.998789 1.04334
          -0.0807488 -0.0918145 -0.114873 -0.0769447 -0.3191 -0.259364
          -0.300825 -0.306156 -0.421372 -0.424531 -0.476443 -0.462474
          0.0852052 0.0653578 -0.00572604 -0.0299528 -0.116421 -0.0669595
          -0.1008 -0.0453142 -0.591306 -0.605091 -0.601902 -0.600585
          0.215118 0.179964 0.272312 0.176386 0.859342 0.857766
          0.88027 0.918357 -0.391712 -0.401768 -0.427097 -0.382405
          -0.270885 -0.253853 -0.284748 -0.239967 1.07521 1.06649
          1.06259 1.01979 -0.0122332 -0.0148698 0 -0.0142378
          -0.154251 -0.175025 -0.128416 -0.131573 -0.1008 -0.151924
          -0.163731 -0.214665 -0.55277 -0.571445 -0.525882 -0.53841
          -0.4245 -0.382787 -0.3705 -0.372283 -0.596435 -0.601565
          -0.589823 -0.580307 0.896305 0.938067 0.953422 0.949524
          -0.0545277 -0.0826292 -0.0994993 -0.0697344 -0.25746 -0.296868
          -0.322874 -0.264953 -0.0891458 -0.112705 -0.132948 -0.0994993
          -0.0516314 -0.0220747 -0.0423778 -0.0321671 0.176386 0.182148
          0.187424 0.10934 -0.254014 -0.321454 -0.292999 -0.317802
          -0.0206394 -0.0225702 -0.0122518 -0.00798877 -0.104158 -0.122071
          -0.0931318 -0.0748949 0.59525 0.554729 0.580698 0.538209
          -0.0748949 -0.0945442 -0.0509829 -0.0769447 0.175661 0.127083
          0.22333 0.18953 -0.476443 -0.511452 -0.508049 -0.540931
          -0.0872548 -0.104158 -0.0748949 -0.0945442 0.835634 0.892396
          0.919067 0.875404 -0.555601 -0.536958 -0.542343 -0.55443
          -0.0689169 -0.0506569 -0.0359205 -0.0373548 -0.522255 -0.509131
          -0.53041 -0.547039 -0.431223 -0.389167 -0.381452 -0.382787
          0.456629 0.408272 0.485717 0.4158 -0.559433 -0.552519
          -0.579112 -0.555601 0.576957 0.591048 0.555971 0.50115
          0.359552 0.350848 0.266939 0.315495 -0.254984 -0.314557
          -0.296868 -0.228365 -0.0206394 -0.0120442 -0.0251656 -0.0432173
          0.929042 0.918357 0.941827 0.900105 -0.218544 -0.267441
          -0.232947 -0.269019 -0.0748949 -0.0945442 -0.0769447 -0.0507497
          -0.340524 -0.337261 -0.304688 -0.335303 -0.408703 -0.359571
          -0.415128 -0.385583 0.0653578 0.0269334 0.00556753 -0.0299528
          0.37568 0.447798 0.422228 0.361752 -0.574662 -0.584442
          -0.586673 -0.546836 1.08172 1.07089 1.08158 1.03044
          0.554507 0.485717 0.524128 0.456629 -0.116728 -0.184803
          -0.166782 -0.132669 -0.389167 -0.431223 -0.421409 -0.4245
          -0.00317775 -0.00736282 -0.0279686 -0.021768 -0.0557286 -0.00310106
          -0.0156401 0.00931725 -0.540931 -0.560632 -0.574662 -0.578733
          0.920067 0.941827 0.96798 0.961753 -0.51427 -0.47284
          -0.498097 -0.497359 -0.535277 -0.526146 -0.55754 -0.545036
          -0.0433125 -0.0527576 -0.0773241 -0.0516314 -0.307478 -0.289606
          -0.314827 -0.273168 0.862298 0.871623 0.926939 0.859128
          -0.0727868 -0.0945442 -0.0748949 -0.104985 0.70697 0.818175
          0.759262 0.696053 -0.559286 -0.531799 -0.55754 -0.535277
          -0.404675 -0.396044 -0.357328 -0.445271 -0.451713 -0.46894
          -0.464844 -0.514186 0.679028 0.545908 0.6277 0.620429
          0.408272 0.461281 0.485717 0.475443 0.805121 0.71224
          0.778368 0.756258 0.0429092 -0.0334379 0.00411554 0.0389614
          1.0076 1.04546 1.06673 0.992186 -0.161825 -0.188792
          -0.228365 -0.25746 -0.601592 -0.596519 -0.601183 -0.606765
          0 0 -0.0158737 0 1.03556 1.00424
          1.05647 1.03604 0.953422 0.949524 0.955905 0.913168
          0.576606 0.471849 0.477071 0.485717 -0.228365 -0.161825
          -0.217591 -0.151939 -0.0746054 -0.0676795 -0.0909205 -0.0974204
          -0.288495 -0.321454 -0.292999 -0.254014 -0.186335 -0.18142
          -0.180202 -0.221329 -0.522822 -0.474792 -0.477031 -0.498097
          1.03556 1.03604 1.09087 1.09618 -0.424615 -0.453424
          -0.397242 -0.396985 0.961097 0.949524 0.990392 0.982176
          -0.106234 -0.024701 -0.106826 -0.0736489 -0.104158 -0.122071
          -0.106801 -0.0931318 -0.231736 -0.182875 -0.191319 -0.230152
          -0.451713 -0.464844 -0.431484 -0.49578 -0.58789 -0.55754
          -0.583 -0.576022 -0.339323 -0.329643 -0.337823 -0.308486
          -0.465925 -0.396985 -0.428833 -0.385172 0.814724 0.7975
          0.862298 0.769835 -0.205846 -0.29873 -0.243691 -0.274253
          0.176386 0.10934 0.187424 0.118803 -0.221329 -0.217356
          -0.248485 -0.241803 -0.56841 -0.587151 -0.581501 -0.59029
          -0.41947 -0.442996 -0.413742 -0.391734 -0.144184 -0.149963
          -0.180202 -0.183844 -0.248147 -0.294327 -0.317222 -0.211871
          0.992186 1.03743 1.07455 1.01616 -0.607479 -0.604121
          -0.606765 -0.606635 -0.159693 -0.166307 -0.188891 -0.21049
          -0.0448786 -0.0423778 -0.021768 -0.0279686 -0.00792568 -0.0853689
          0.00698102 -0.0716904 0.439675 0.41735 0.461281 0.38677
          0.422228 0.361752 0.365474 0.29799 0.554507 0.620429
          0.485717 0.528453 -0.551364 -0.517394 -0.53041 -0.522255
          -0.25746 -0.297914 -0.332993 -0.254984 -0.385172 -0.460937
          -0.428833 -0.465925 -0.00792568 0.00698102 0.0287109 0.0973606
          -0.606543 -0.595416 -0.589306 -0.600512 0.771063 0.736088
          0.694364 0.764036 -0.0873447 -0.171147 -0.140693 -0.161825
          -0.0456833 -0.0388337 -0.0366013 -0.0527576 0.649864 0.693554
          0.64528 0.746051 1.04493 0.994064 0.992022 1.00044
          -0.183591 -0.160773 -0.19356 -0.155184 -0.509551 -0.528465
          -0.562779 -0.536532 0.994064 0.959385 0.955905 0.964551
          -0.172689 -0.219229 -0.20773 -0.187651 -0.128416 -0.0974204
          -0.10816 -0.114873 -0.106306 -0.0762623 -0.0566621 -0.0821753
          -0.36495 -0.397242 -0.424531 -0.393886 -0.0918145 -0.0979749
          -0.126556 -0.0987839 -0.606824 -0.606765 -0.610537 -0.607479
          0.769835 0.771063 0.814724 0.71259 -0.3605 -0.424531
          -0.394107 -0.421164 -0.254014 -0.317802 -0.292999 -0.245591
          -0.596519 -0.591591 -0.60849 -0.605534 -0.187651 -0.20773
          -0.191319 -0.194693 -0.137564 -0.0946214 -0.132948 -0.0994993
          0.998789 0.973437 0.96754 1.00082 -0.182875 -0.135977
          -0.155184 -0.131573 0.315495 0.420383 0.359552 0.350848
          -0.515213 -0.49578 -0.520643 -0.481413 -0.606765 -0.601183
          -0.615295 -0.60849 -0.0163549 -0.0778743 -0.0477761 -0.0826948
          1.08923 1.08958 1.07607 1.09375 0.191131 0.18953
          0.122055 0.175661 -0.584442 -0.573116 -0.605756 -0.584649
          -0.224153 -0.230152 -0.199185 -0.183591 -0.55277 -0.525882
          -0.520877 -0.53841 -0.339323 -0.329643 -0.382405 -0.337823
          0.50115 0.540835 0.466509 0.559671 0 0
          0 -0.0158737 1.00014 0.96798 1.01396 0.998789
          0.961097 0.982276 0.990392 0.949524 -0.125053 -0.160393
          -0.133725 -0.155231 -0.0126354 -0.0287179 -0.0210781 -0.0242749
          -0.593287 -0.58789 -0.58394 -0.576022 0.871623 0.818175
          0.814724 0.771063 -0.182875 -0.154251 -0.183591 -0.135977
          0.929731 0.94404 0.961097 0.922122 -0.571445 -0.582806
          -0.589306 -0.600482 -0.029839 -0.0206394 -0.0122332 -0.026493
          0.559671 0.481467 0.576957 0.60553 0.215118 0.213013
          0.191131 0.293154 0.215118 0.22333 0.191131 0.175661
          -0.145402 -0.209163 -0.243691 -0.228365 0.48689 0.453532
          0.495567 0.555971 0.362052 0.368224 0.41735 0.342808
          -0.224153 -0.212972 -0.199185 -0.230152 -0.0853689 -0.1008
          -0.151924 -0.163731 0.0692919 0.132925 0.164525 0.0577277
          -0.0179501 -0.0366013 -0.0281452 -0.0199872 -0.559286 -0.58789
          -0.580329 -0.55754 -0.104158 -0.144184 -0.122071 -0.131573
          0.953422 0.994249 0.982276 0.994842 1.02618 1.02395
          1.063 1.0378 -0.145402 -0.163731 -0.209163 -0.151939
          -0.381652 -0.317802 -0.34114 -0.321454 0.215118 0.22333
          0.272312 0.29799 -0.0509829 -0.0727868 -0.0748949 -0.0436944
          0.490251 0.453532 0.540835 0.447798 -0.58394 -0.547193
          -0.572757 -0.55754 -0.0693774 -0.0861512 -0.045854 -0.0620695
          -0.300863 -0.284289 -0.326509 -0.282981 0.620429 0.576606
          0.701116 0.671573 -0.248147 -0.238023 -0.211871 -0.178291
          0.0973606 0.124246 0.181751 0.088712 -0.593287 -0.572757
          -0.576022 -0.58394 -0.332993 -0.384992 -0.297914 -0.322874
          -0.282402 -0.327695 -0.307637 -0.282981 -0.556536 -0.581501
          -0.59029 -0.56841 0.805121 0.778368 0.826217 0.756258
          -0.254984 -0.217591 -0.314557 -0.228365 -0.542343 -0.514976
          -0.564006 -0.553089 -0.0831016 -0.0124784 -0.0397778 0.0429092
          1.04334 1.09618 1.03604 1.05426 -0.552479 -0.55443
          -0.576103 -0.553089 0.408272 0.485717 0.528453 0.456629
          -0.59472 -0.586375 -0.59992 -0.598679 -0.411734 -0.381452
          -0.375762 -0.372513 -0.4245 -0.431223 -0.428618 -0.382787
          -0.446413 -0.487995 -0.451585 -0.445271 -0.228437 -0.267026
          -0.273168 -0.251108 -0.0122332 -0.029839 -0.014675 -0.0120442
          -0.311202 -0.34114 -0.340524 -0.372513 -0.508049 -0.511432
          -0.530527 -0.490188 -0.467995 -0.428833 -0.472928 -0.429248
          -0.0831016 -0.106234 -0.0736489 -0.0446928 0.918357 0.919067
          0.9111 0.857766 -0.508049 -0.548618 -0.551974 -0.530527
          -0.278857 -0.264953 -0.212564 -0.219076 -0.606765 -0.60849
          -0.615295 -0.615798 -0.514976 -0.509884 -0.492321 -0.518352
          -0.393886 -0.421372 -0.444654 -0.462474 -0.282402 -0.251108
          -0.233291 -0.259877 -0.319052 -0.307637 -0.304688 -0.337261
          -0.436534 -0.431469 -0.401189 -0.410755 -0.477368 -0.475633
          -0.516593 -0.471353 -0.346023 -0.343334 -0.306575 -0.335303
          0.982176 1.02033 0.982276 0.990392 0.745728 0.746051
          0.847262 0.79386 -0.410755 -0.375762 -0.372513 -0.411734
          -0.565105 -0.586673 -0.567941 -0.582338 -0.556536 -0.552479
          -0.571251 -0.54589 -0.183844 -0.180202 -0.184676 -0.223718
          -0.228365 -0.211871 -0.151939 -0.217591 0.835634 0.892396
          0.875404 0.823583 -0.566595 -0.578393 -0.578733 -0.590032
          -0.482959 -0.475595 -0.471625 -0.516821 -0.026493 -0.0126354
          -0.0287179 -0.0122332 -0.1029 -0.112389 -0.161331 -0.167424
          -0.604306 -0.608411 -0.604088 -0.591783 -0.3705 -0.335303
          -0.307637 -0.372283 0.70697 0.585769 0.681261 0.563365
          -0.43445 -0.420885 -0.381452 -0.426503 0.0590978 0.0973606
          0.15972 0.153568 -0.525882 -0.4944 -0.53841 -0.538075
          -0.0557286 -0.0383277 -0.119836 -0.120107 -0.0669595 -0.0557286
          -0.119836 -0.120107 -0.381652 -0.321454 -0.34114 -0.365311
          -0.330755 -0.314557 -0.369417 -0.314393 0.615495 0.555971
          0.575552 0.490251 -0.415128 -0.384611 -0.451025 -0.401768
          -0.27258 -0.327695 -0.282402 -0.282981 -0.0194943 -0.0148698
          -0.026493 -0.0142378 -0.598679 -0.59472 -0.607226 -0.606635
          0.892847 0.883765 0.922832 0.939445 -0.319623 -0.274253
          -0.214665 -0.264953 -0.529951 -0.566982 -0.562779 -0.536532
          -0.382787 -0.339323 -0.391712 -0.3705 -0.353888 -0.31289
          -0.278857 -0.327936 -0.183844 -0.144184 -0.184676 -0.180202
          -0.574159 -0.555601 -0.536958 -0.559433 0.317271 0.243135
          0.274001 0.229358 0.913168 0.92421 0.88158 0.870041
          0.652694 0.580698 0.6277 0.538209 1.03604 1.04279
          1.05647 1.09087 -0.0362098 -0.0545277 -0.0436944 -0.0697344
          -0.428618 -0.477368 -0.4245 -0.477031 -0.535277 -0.52226
          -0.545036 -0.554683 -0.00337952 -0.0163549 0.0225208 -0.00572604
          -0.489206 -0.451025 -0.471353 -0.415128 -0.596435 -0.572757
          -0.56772 -0.580307 -0.471625 -0.43155 -0.465409 -0.475595
          -0.0436944 -0.0251656 -0.0225702 -0.0414316 -0.471625 -0.428346
          -0.431469 -0.436534 1.00424 1.04546 1.04279 1.0076
          -0.606613 -0.601484 -0.601281 -0.589541 -0.576022 -0.570157
          -0.576693 -0.58693 -0.191288 -0.171147 -0.239709 -0.164205
          -0.382405 -0.428618 -0.412527 -0.456047 -0.251108 -0.292999
          -0.273168 -0.289606 -0.151939 -0.0853689 -0.145402 -0.163731
          -0.104985 -0.0931318 -0.0727868 -0.0966911 -0.106801 -0.125053
          -0.0931318 -0.122071 0.982276 1.03044 1.0378 0.994842
          -0.451713 -0.440537 -0.384992 -0.410354 -0.248543 -0.230152
          -0.270885 -0.224153 -0.0310522 -0.0414897 -0.0199872 -0.0388337
          -0.49578 -0.472928 -0.431484 -0.465698 0.447798 0.365474
          0.361752 0.466509 0.283342 0.243135 0.26528 0.317271
          -0.393886 -0.451585 -0.462474 -0.445271 -0.18142 -0.166307
          -0.192492 -0.21049 -0.602749 -0.587157 -0.594283 -0.604121
          -0.267026 -0.335138 -0.307478 -0.292999 -0.617884 -0.610222
          -0.604088 -0.614347 -0.581327 -0.596519 -0.587951 -0.564006
          -0.472928 -0.53106 -0.465698 -0.49578 -0.592 -0.605701
          -0.59666 -0.600585 -0.426503 -0.409138 -0.385427 -0.386426
          -0.0122332 -0.029839 -0.0335524 -0.0297218 -0.205679 -0.263183
          -0.275434 -0.248147 0.576606 0.545908 0.580698 0.475443
          0.778517 0.736088 0.764036 0.710946 0.375903 0.420383
          0.43286 0.441455 0 0 0 -0.0126354
          0.953422 0.968415 0.938067 0.962865 0.362052 0.41735
          0.404996 0.346431 1.05647 1.08595 1.09294 1.08311
          -0.38119 -0.3605 -0.376382 -0.421164 0.136241 0.0517336
          0.0409103 0.118803 -0.596049 -0.591783 -0.574662 -0.584442
          0.281712 0.181751 0.270179 0.179964 -0.542389 -0.522822
          -0.506753 -0.498097 -0.160316 -0.20773 -0.178468 -0.183844
          -0.41947 -0.391734 -0.413742 -0.371754 -0.436534 -0.4751
          -0.470342 -0.471625 0.673158 0.715046 0.649864 0.64528
          -0.161331 -0.167424 -0.205679 -0.238931 -0.182875 -0.155184
          -0.184676 -0.131573 0.447798 0.50115 0.361752 0.453532
          -0.503135 -0.521842 -0.548618 -0.508049 -0.357328 -0.321953
          -0.365193 -0.393886 -0.0545277 -0.0826292 -0.0697344 -0.051966
          -0.601903 -0.598996 -0.607479 -0.597244 0.366123 0.281712
          0.266951 0.266939 -0.0697344 -0.0826292 -0.0918569 -0.051966
          -0.550484 -0.541258 -0.514186 -0.515213 -0.555061 -0.538075
          -0.53841 -0.571445 0.555971 0.673158 0.615495 0.591048
          -0.410755 -0.382811 -0.372513 -0.375762 -0.411734 -0.381452
          -0.364239 -0.375762 -0.184803 -0.187186 -0.238023 -0.249103
          -0.386426 -0.337261 -0.369547 -0.341033 -0.0994993 -0.0800162
          -0.0697344 -0.0891458 0.243135 0.147286 0.183895 0.19353
          1.01785 1.07089 1.03044 1.06649 -0.0826948 -0.141522
          -0.116229 -0.0383277 -0.503135 -0.508049 -0.551974 -0.530527
          -0.0507497 -0.029839 -0.0287179 -0.0509829 -0.0663928 -0.0515769
          -0.0436944 -0.0727868 -0.510261 -0.539178 -0.516593 -0.539299
          -0.029839 -0.0122332 -0.0335524 -0.026493 0.490251 0.45118
          0.447798 0.525818 0.37568 0.447798 0.45118 0.422228
          -0.382405 -0.391712 -0.412527 -0.428618 -0.138966 -0.141493
          -0.135977 -0.0979749 0.961097 0.988705 0.97371 0.990392
          -0.317222 -0.397242 -0.294244 -0.360076 -0.100418 -0.139971
          -0.128416 -0.128993 -0.425111 -0.472728 -0.442072 -0.453424
          -0.382405 -0.337823 -0.3705 -0.391712 -0.539182 -0.529951
          -0.528465 -0.501778 0.778517 0.834652 0.771063 0.818175
          0.00411554 -0.0334379 -0.0446928 0.0389614 0.555971 0.453532
          0.50115 0.540835 -0.605701 -0.604568 -0.607233 -0.613989
          0.350848 0.420383 0.359552 0.43286 0.918228 0.952366
          0.962865 0.964402 -0.520643 -0.546836 -0.515213 -0.503281
          -0.382405 -0.337823 -0.412527 -0.3705 -0.587157 -0.59472
          -0.595506 -0.604121 -0.498097 -0.474792 -0.477031 -0.459335
          -0.0994993 -0.0800162 -0.0545277 -0.0697344 0.66868 0.615495
          0.555971 0.673158 0.953422 0.967832 0.994249 0.994842
          -0.581327 -0.570554 -0.553089 -0.55811 -0.27258 -0.339323
          -0.282402 -0.327695 -0.523147 -0.561995 -0.548618 -0.557066
          -0.552479 -0.570554 -0.571251 -0.54589 0.266951 0.15972
          0.266939 0.192337 -0.542343 -0.519906 -0.513988 -0.536958
          -0.59029 -0.581501 -0.593334 -0.600877 -0.598996 -0.610537
          -0.601281 -0.604306 -0.472928 -0.431484 -0.429248 -0.428833
          -0.359323 -0.416931 -0.376847 -0.385172 -0.323018 -0.359323
          -0.376847 -0.330755 -0.611269 -0.617295 -0.617884 -0.614347
          -0.594197 -0.598679 -0.605091 -0.59422 -0.166307 -0.167938
          -0.192492 -0.20878 -0.365193 -0.393886 -0.444654 -0.445271
          -0.578733 -0.594954 -0.581108 -0.594765 -0.559286 -0.55754
          -0.583 -0.58789 -0.563005 -0.573116 -0.584442 -0.584649
          -0.34214 -0.396044 -0.404675 -0.3614 -0.19048 -0.160393
          -0.149963 -0.183844 0 -0.021768 -0.00736282 -0.00317775
          -0.549552 -0.550484 -0.49578 -0.53106 0.725891 0.660272
          0.661841 0.739584 0.274001 0.184625 0.229358 0.243135
          -0.104985 -0.125435 -0.153426 -0.137923 -0.589541 -0.5595
          -0.56754 -0.578377 0.994249 0.973437 0.957611 0.955905
          -0.187651 -0.245591 -0.20773 -0.194693 -0.425111 -0.486264
          -0.472728 -0.453424 -0.587951 -0.59394 -0.601592 -0.597055
          -0.601592 -0.59394 -0.606765 -0.597055 -0.385583 -0.382787
          -0.401189 -0.335303 -0.0676795 -0.0746054 -0.0909205 -0.0492213
          -0.249103 -0.315558 -0.294244 -0.302569 -0.522822 -0.513139
          -0.498097 -0.51427 -0.533339 -0.510261 -0.552519 -0.507128
          -0.457714 -0.440537 -0.384992 -0.451713 0.994064 1.03604
          1.04493 0.994249 -0.528465 -0.501778 -0.487696 -0.509551
          0.274001 0.34242 0.317271 0.325313 -0.529951 -0.573364
          -0.539182 -0.562779 0.763692 0.71224 0.701116 0.778368
          -0.606613 -0.589541 -0.59445 -0.578377 0.982176 0.951491
          0.945894 0.968415 0.701116 0.679028 0.694364 0.6277
          -0.600482 -0.595565 -0.606543 -0.60549 -0.596519 -0.583544
          -0.60849 -0.591591 0.0350586 0.0354087 0.0429092 -0.0339357
          0.953422 0.967832 0.952366 0.957611 0.549801 0.559671
          0.554729 0.486622 -0.598996 -0.601787 -0.60549 -0.595565
          -0.0876329 -0.104158 -0.0748949 -0.0507497 0.964402 0.964402
          0.952366 0.919067 0.918357 0.88027 0.859342 0.909085
          0.941827 0.926939 0.957762 0.924588 -0.0689169 -0.0807488
          -0.0546027 -0.0359205 -0.596519 -0.571117 -0.587951 -0.564006
          -0.587157 -0.559433 -0.576693 -0.572757 -0.426503 -0.385427
          -0.381452 -0.386426 -0.112389 -0.205679 -0.164205 -0.123642
          -0.0918145 -0.0821753 -0.0979749 -0.0987839 -0.571445 -0.582806
          -0.600482 -0.579963 -0.516903 -0.4944 -0.53841 -0.511432
          -0.605091 -0.605291 -0.600585 -0.595495 -0.420885 -0.445396
          -0.409138 -0.456825 -0.591654 -0.594759 -0.605701 -0.583032
          0.871623 0.86023 0.905117 0.859128 -0.592 -0.605701
          -0.600585 -0.585031 -0.458207 -0.482107 -0.46894 -0.501778
          -0.508049 -0.523147 -0.548618 -0.540931 -0.219229 -0.254014
          -0.228437 -0.20773 -0.20773 -0.245591 -0.251108 -0.231736
          0.0590978 0.124246 0.15972 0.0973606 -0.542389 -0.498097
          -0.506753 -0.529073 -0.511239 -0.491207 -0.51427 -0.517394
          -0.562779 -0.596049 -0.583032 -0.577714 0.554729 0.559671
          0.60553 0.481467 -0.608411 -0.617295 -0.611269 -0.614347
          0.554507 0.485717 0.456629 0.528453 0.746051 0.673158
          0.66868 0.750003 0.961753 0.959385 0.941827 0.998789
          -0.209163 -0.321953 -0.264953 -0.274253 -0.598679 -0.606635
          -0.605291 -0.59992 -0.523147 -0.548618 -0.549448 -0.557066
          0.715046 0.635195 0.690529 0.685729 0.962158 0.945524
          0.939445 0.929123 -0.346023 -0.385583 -0.343334 -0.335303
          -0.269956 -0.269019 -0.218544 -0.232947 0.715046 0.6934
          0.769835 0.690529 -0.160316 -0.149963 -0.178468 -0.139971
          0.781783 0.835634 0.813209 0.753101 -0.230152 -0.212972
          -0.239967 -0.224153 -0.217591 -0.211871 -0.151939 -0.14341
          -0.0974204 -0.0909205 -0.10816 -0.114873 -0.20773 -0.178468
          -0.183844 -0.19048 -0.348043 -0.319052 -0.369547 -0.372283
          -0.0310522 -0.00712274 -0.0199872 -0.0274994 -0.594197 -0.591283
          -0.598679 -0.588037 0.701116 0.6934 0.694364 0.764036
          -0.327695 -0.308486 -0.337823 -0.286097 -0.282981 -0.308486
          -0.327695 -0.286097 0.43286 0.359552 0.350848 0.366123